 Entering Gaussian System, Link 0=g16
 Initial command:
 /opt/export//g16/l1.exe "/tmp/Gau-53838.inp" -scrdir="/tmp/"
 Entering Link 1 = /opt/export//g16/l1.exe PID=     53979.
  
 Copyright (c) 1988,1990,1992,1993,1995,1998,2003,2009,2016,
            Gaussian, Inc.  All Rights Reserved.
  
 This is part of the Gaussian(R) 16 program.  It is based on
 the Gaussian(R) 09 system (copyright 2009, Gaussian, Inc.),
 the Gaussian(R) 03 system (copyright 2003, Gaussian, Inc.),
 the Gaussian(R) 98 system (copyright 1998, Gaussian, Inc.),
 the Gaussian(R) 94 system (copyright 1995, Gaussian, Inc.),
 the Gaussian 92(TM) system (copyright 1992, Gaussian, Inc.),
 the Gaussian 90(TM) system (copyright 1990, Gaussian, Inc.),
 the Gaussian 88(TM) system (copyright 1988, Gaussian, Inc.),
 the Gaussian 86(TM) system (copyright 1986, Carnegie Mellon
 University), and the Gaussian 82(TM) system (copyright 1983,
 Carnegie Mellon University). Gaussian is a federally registered
 trademark of Gaussian, Inc.
  
 This software contains proprietary and confidential information,
 including trade secrets, belonging to Gaussian, Inc.
  
 This software is provided under written license and may be
 used, copied, transmitted, or stored only in accord with that
 written license.
  
 The following legend is applicable only to US Government
 contracts under FAR:
  
                    RESTRICTED RIGHTS LEGEND
  
 Use, reproduction and disclosure by the US Government is
 subject to restrictions as set forth in subparagraphs (a)
 and (c) of the Commercial Computer Software - Restricted
 Rights clause in FAR 52.227-19.
  
 Gaussian, Inc.
 340 Quinnipiac St., Bldg. 40, Wallingford CT 06492
  
  
 ---------------------------------------------------------------
 Warning -- This program may not be used in any manner that
 competes with the business of Gaussian, Inc. or will provide
 assistance to any competitor of Gaussian, Inc.  The licensee
 of this program is prohibited from giving any competitor of
 Gaussian, Inc. access to this program.  By using this program,
 the user acknowledges that Gaussian, Inc. is engaged in the
 business of creating and licensing software in the field of
 computational chemistry and represents and warrants to the
 licensee that it is not a competitor of Gaussian, Inc. and that
 it will not use this program in any manner prohibited above.
 ---------------------------------------------------------------
  

 Cite this work as:
 Gaussian 16, Revision A.03,
 M. J. Frisch, G. W. Trucks, H. B. Schlegel, G. E. Scuseria, 
 M. A. Robb, J. R. Cheeseman, G. Scalmani, V. Barone, 
 G. A. Petersson, H. Nakatsuji, X. Li, M. Caricato, A. V. Marenich, 
 J. Bloino, B. G. Janesko, R. Gomperts, B. Mennucci, H. P. Hratchian, 
 J. V. Ortiz, A. F. Izmaylov, J. L. Sonnenberg, D. Williams-Young, 
 F. Ding, F. Lipparini, F. Egidi, J. Goings, B. Peng, A. Petrone, 
 T. Henderson, D. Ranasinghe, V. G. Zakrzewski, J. Gao, N. Rega, 
 G. Zheng, W. Liang, M. Hada, M. Ehara, K. Toyota, R. Fukuda, 
 J. Hasegawa, M. Ishida, T. Nakajima, Y. Honda, O. Kitao, H. Nakai, 
 T. Vreven, K. Throssell, J. A. Montgomery, Jr., J. E. Peralta, 
 F. Ogliaro, M. J. Bearpark, J. J. Heyd, E. N. Brothers, K. N. Kudin, 
 V. N. Staroverov, T. A. Keith, R. Kobayashi, J. Normand, 
 K. Raghavachari, A. P. Rendell, J. C. Burant, S. S. Iyengar, 
 J. Tomasi, M. Cossi, J. M. Millam, M. Klene, C. Adamo, R. Cammi, 
 J. W. Ochterski, R. L. Martin, K. Morokuma, O. Farkas, 
 J. B. Foresman, and D. J. Fox, Gaussian, Inc., Wallingford CT, 2016.
 
 ******************************************
 Gaussian 16:  EM64L-G16RevA.03 25-Dec-2016
                19-Aug-2021 
 ******************************************
 %chk=PY101_keto_CB
 ----------------------------------------------------------------
 #n CAM-B3LYP/6-31G(d,p) Opt=ReadFC Freq Geom=AllCheck Guess=Read
 ----------------------------------------------------------------
 1/10=3,18=20,19=15,26=3,29=7,38=1/1,3;
 2/9=110,12=2,40=1/2;
 3/5=1,6=6,7=101,11=2,14=-4,25=1,30=1,71=1,74=-40,116=-2/1,2,3;
 4/5=1/1;
 5/5=2,38=6/2;
 6/7=2,8=2,9=2,10=2,28=1/1;
 7//1,2,3,16;
 1/18=20,19=15,26=3/3(2);
 2/9=110/2;
 99//99;
 2/9=110/2;
 3/5=1,6=6,7=101,11=2,14=-2,25=1,30=1,71=1,74=-40/1,2,3;
 4/5=5,16=3,69=1/1;
 5/5=2,38=5/2;
 7//1,2,3,16;
 1/18=20,19=15,26=3/3(-5);
 2/9=110/2;
 6/7=2,8=2,9=2,10=2,19=2,28=1/1;
 99/9=1/99;
 Structure from the checkpoint file:  "PY101_keto_CB.chk"
 ----------
 PY101_keto
 ----------
 Charge =  0 Multiplicity = 1
 Redundant internal coordinates found in file.  (old form).
 O,0,1.9470885337,2.6463860887,0.0048940808
 O,0,-1.8052283138,-2.4832502749,-0.0031417519
 N,0,0.5641735877,0.4540719696,0.001510477
 N,0,-0.5778949182,-0.2874079361,0.0002155044
 C,0,6.6508354036,-1.6966029258,-0.0001526946
 C,0,6.6439506511,-0.3271421125,0.0017670673
 C,0,5.4260326288,-2.3888256045,-0.0013962824
 C,0,4.2327095484,-1.7105700131,-0.000710179
 C,0,5.4345655902,1.8188607387,0.0045088524
 C,0,4.2773671218,2.5317355309,0.0052516239
 C,0,5.4301069501,0.3967236984,0.0025125926
 C,0,4.1885289825,-0.294225026,0.0012669935
 C,0,3.0281789447,1.8633148674,0.0040359215
 C,0,2.9621672164,0.4666669664,0.0020616425
 C,0,1.6773259902,-0.1978331588,0.0008431309
 C,0,-6.6890883744,0.1233452322,-0.0005702058
 C,0,-6.8039330832,1.4966425604,0.0013334214
 C,0,-5.6420314265,2.2739380371,0.0026847808
 C,0,-4.3961088875,1.6791728692,0.002127313
 C,0,-4.2516926073,0.2802169788,0.0001941052
 C,0,-5.4312075446,-0.4988559897,-0.0011635719
 C,0,-5.3307034777,-1.9383403676,-0.0031633042
 C,0,-4.1493452723,-2.5837536345,-0.0038062793
 C,0,-2.8923187285,-1.8557714997,-0.0025030032
 C,0,-2.9602443365,-0.4018082919,-0.0004759058
 C,0,-1.7682050705,0.3030888249,0.0007793942
 H,0,5.4217162051,-3.4739810705,-0.0029196214
 H,0,3.3177783033,-2.2898694191,-0.0017263224
 H,0,7.5866991542,-2.24458503,-0.0007133082
 H,0,7.5764688704,0.2296214488,0.0027556372
 H,0,1.1446992898,2.0725626432,0.0039105376
 H,0,4.2652116062,3.6152735938,0.0067691528
 H,0,6.3908264075,2.3334438121,0.0054435375
 H,0,-7.5777791372,-0.5013487999,-0.001646129
 H,0,-7.7802821116,1.968676299,0.0017786382
 H,0,-5.7151855623,3.3567536104,0.0041897259
 H,0,-3.5224934603,2.321110317,0.0032243127
 H,0,-6.2585706919,-2.5047166073,-0.0041660023
 H,0,-4.0784327319,-3.6653809086,-0.0053098362
 H,0,1.6488896319,-1.2870660756,-0.0006921402
 H,0,-1.7349881951,1.3873505358,0.0023090034
 H,0,-0.6255961892,-1.3329564136,-0.0012632084
 Recover connectivity data from disk.

 GradGradGradGradGradGradGradGradGradGradGradGradGradGradGradGradGradGrad
 Berny optimization.
 Initialization pass.
 Force constant matrix read from checkpoint file:
 "PY101_keto_CB.chk"
                           ----------------------------
                           !    Initial Parameters    !
                           ! (Angstroms and Degrees)  !
 --------------------------                            --------------------------
 ! Name  Definition              Value          Derivative Info.                !
 --------------------------------------------------------------------------------
 ! R1    R(1,13)                 1.3349         D2E/DX2 =    0.4925             !
 ! R2    R(1,31)                 0.9865         D2E/DX2 =    0.4084             !
 ! R3    R(2,24)                 1.2552         D2E/DX2 =    0.6723             !
 ! R4    R(3,4)                  1.3617         D2E/DX2 =    0.4193             !
 ! R5    R(3,15)                 1.29           D2E/DX2 =    0.6698             !
 ! R6    R(4,26)                 1.3287         D2E/DX2 =    0.5449             !
 ! R7    R(4,42)                 1.0466         D2E/DX2 =    0.32               !
 ! R8    R(5,6)                  1.3695         D2E/DX2 =    0.4623             !
 ! R9    R(5,7)                  1.4069         D2E/DX2 =    0.3812             !
 ! R10   R(5,29)                 1.0845         D2E/DX2 =    0.3666             !
 ! R11   R(6,11)                 1.4133         D2E/DX2 =    0.3752             !
 ! R12   R(6,30)                 1.0861         D2E/DX2 =    0.3627             !
 ! R13   R(7,8)                  1.3726         D2E/DX2 =    0.4534             !
 ! R14   R(7,27)                 1.0852         D2E/DX2 =    0.365              !
 ! R15   R(8,12)                 1.417          D2E/DX2 =    0.3655             !
 ! R16   R(8,28)                 1.0829         D2E/DX2 =    0.3695             !
 ! R17   R(9,10)                 1.3592         D2E/DX2 =    0.4894             !
 ! R18   R(9,11)                 1.4221         D2E/DX2 =    0.3619             !
 ! R19   R(9,33)                 1.0859         D2E/DX2 =    0.3635             !
 ! R20   R(10,13)                1.4168         D2E/DX2 =    0.3679             !
 ! R21   R(10,32)                1.0836         D2E/DX2 =    0.3701             !
 ! R22   R(11,12)                1.4209         D2E/DX2 =    0.3058             !
 ! R23   R(12,14)                1.4432         D2E/DX2 =    0.3531             !
 ! R24   R(13,14)                1.3982         D2E/DX2 =    0.4496             !
 ! R25   R(14,15)                1.4465         D2E/DX2 =    0.3767             !
 ! R26   R(15,40)                1.0896         D2E/DX2 =    0.3547             !
 ! R27   R(16,17)                1.3781         D2E/DX2 =    0.441              !
 ! R28   R(16,21)                1.4034         D2E/DX2 =    0.3918             !
 ! R29   R(16,34)                1.0863         D2E/DX2 =    0.3621             !
 ! R30   R(17,18)                1.3979         D2E/DX2 =    0.3973             !
 ! R31   R(17,35)                1.0845         D2E/DX2 =    0.3665             !
 ! R32   R(18,19)                1.3806         D2E/DX2 =    0.4336             !
 ! R33   R(18,36)                1.0853         D2E/DX2 =    0.3646             !
 ! R34   R(19,20)                1.4064         D2E/DX2 =    0.3821             !
 ! R35   R(19,37)                1.0841         D2E/DX2 =    0.3664             !
 ! R36   R(20,21)                1.4136         D2E/DX2 =    0.3153             !
 ! R37   R(20,25)                1.4605         D2E/DX2 =    0.332              !
 ! R38   R(21,22)                1.443          D2E/DX2 =    0.3371             !
 ! R39   R(22,23)                1.3462         D2E/DX2 =    0.5266             !
 ! R40   R(22,38)                1.0871         D2E/DX2 =    0.3605             !
 ! R41   R(23,24)                1.4526         D2E/DX2 =    0.3129             !
 ! R42   R(23,39)                1.084          D2E/DX2 =    0.3692             !
 ! R43   R(24,25)                1.4556         D2E/DX2 =    0.338              !
 ! R44   R(25,26)                1.3849         D2E/DX2 =    0.5272             !
 ! R45   R(26,41)                1.0848         D2E/DX2 =    0.3693             !
 ! A1    A(13,1,31)            108.5126         D2E/DX2 =    0.2811             !
 ! A2    A(4,3,15)             116.6517         D2E/DX2 =    0.3609             !
 ! A3    A(3,4,26)             120.6212         D2E/DX2 =    0.1541             !
 ! A4    A(3,4,42)             125.6056         D2E/DX2 =    0.0974             !
 ! A5    A(26,4,42)            113.7732         D2E/DX2 =    0.1252             !
 ! A6    A(6,5,7)              119.1859         D2E/DX2 =    0.0815             !
 ! A7    A(6,5,29)             120.6386         D2E/DX2 =    0.0822             !
 ! A8    A(7,5,29)             120.1756         D2E/DX2 =    0.0823             !
 ! A9    A(5,6,11)             121.0974         D2E/DX2 =    0.0838             !
 ! A10   A(5,6,30)             120.5515         D2E/DX2 =    0.0839             !
 ! A11   A(11,6,30)            118.3511         D2E/DX2 =    0.0844             !
 ! A12   A(5,7,8)              120.9133         D2E/DX2 =    0.0818             !
 ! A13   A(5,7,27)             119.7018         D2E/DX2 =    0.0834             !
 ! A14   A(8,7,27)             119.3849         D2E/DX2 =    0.0836             !
 ! A15   A(7,8,12)             121.3995         D2E/DX2 =    0.0847             !
 ! A16   A(7,8,28)             118.0467         D2E/DX2 =    0.0903             !
 ! A17   A(12,8,28)            120.5538         D2E/DX2 =    0.0849             !
 ! A18   A(10,9,11)            121.4549         D2E/DX2 =    0.0807             !
 ! A19   A(10,9,33)            120.0798         D2E/DX2 =    0.0829             !
 ! A20   A(11,9,33)            118.4653         D2E/DX2 =    0.0834             !
 ! A21   A(9,10,13)            120.2149         D2E/DX2 =    0.0833             !
 ! A22   A(9,10,32)            122.2773         D2E/DX2 =    0.0795             !
 ! A23   A(13,10,32)           117.5078         D2E/DX2 =    0.0803             !
 ! A24   A(6,11,9)             120.6298         D2E/DX2 =    0.1091             !
 ! A25   A(6,11,12)            120.0942         D2E/DX2 =    0.0835             !
 ! A26   A(9,11,12)            119.276          D2E/DX2 =    0.0817             !
 ! A27   A(8,12,11)            117.3097         D2E/DX2 =    0.0884             !
 ! A28   A(8,12,14)            123.6041         D2E/DX2 =    0.1236             !
 ! A29   A(11,12,14)           119.0862         D2E/DX2 =    0.0879             !
 ! A30   A(1,13,10)            115.9323         D2E/DX2 =    0.1912             !
 ! A31   A(1,13,14)            123.2111         D2E/DX2 =    0.2195             !
 ! A32   A(10,13,14)           120.8566         D2E/DX2 =    0.0934             !
 ! A33   A(12,14,13)           119.1114         D2E/DX2 =    0.0939             !
 ! A34   A(12,14,15)           120.8352         D2E/DX2 =    0.2478             !
 ! A35   A(13,14,15)           120.0534         D2E/DX2 =    0.2989             !
 ! A36   A(3,15,14)            122.2978         D2E/DX2 =    0.2377             !
 ! A37   A(3,15,40)            118.8594         D2E/DX2 =    0.1413             !
 ! A38   A(14,15,40)           118.8428         D2E/DX2 =    0.1227             !
 ! A39   A(17,16,21)           121.0993         D2E/DX2 =    0.084              !
 ! A40   A(17,16,34)           120.3245         D2E/DX2 =    0.0841             !
 ! A41   A(21,16,34)           118.5762         D2E/DX2 =    0.0846             !
 ! A42   A(16,17,18)           119.0016         D2E/DX2 =    0.0823             !
 ! A43   A(16,17,35)           120.5826         D2E/DX2 =    0.0823             !
 ! A44   A(18,17,35)           120.4157         D2E/DX2 =    0.0823             !
 ! A45   A(17,18,19)           120.6996         D2E/DX2 =    0.0825             !
 ! A46   A(17,18,36)           119.917          D2E/DX2 =    0.0834             !
 ! A47   A(19,18,36)           119.3834         D2E/DX2 =    0.0836             !
 ! A48   A(18,19,20)           121.4122         D2E/DX2 =    0.0847             !
 ! A49   A(18,19,37)           118.1729         D2E/DX2 =    0.0894             !
 ! A50   A(20,19,37)           120.4148         D2E/DX2 =    0.085              !
 ! A51   A(19,20,21)           117.5511         D2E/DX2 =    0.0875             !
 ! A52   A(19,20,25)           123.7328         D2E/DX2 =    0.1202             !
 ! A53   A(21,20,25)           118.7161         D2E/DX2 =    0.0872             !
 ! A54   A(16,21,20)           120.2361         D2E/DX2 =    0.0837             !
 ! A55   A(16,21,22)           120.3128         D2E/DX2 =    0.1078             !
 ! A56   A(20,21,22)           119.451          D2E/DX2 =    0.0788             !
 ! A57   A(21,22,23)           122.6431         D2E/DX2 =    0.0779             !
 ! A58   A(21,22,38)           117.4063         D2E/DX2 =    0.0833             !
 ! A59   A(23,22,38)           119.9506         D2E/DX2 =    0.0825             !
 ! A60   A(22,23,24)           121.2743         D2E/DX2 =    0.0815             !
 ! A61   A(22,23,39)           122.4002         D2E/DX2 =    0.078              !
 ! A62   A(24,23,39)           116.3255         D2E/DX2 =    0.078              !
 ! A63   A(2,24,23)            119.9296         D2E/DX2 =    0.2054             !
 ! A64   A(2,24,25)            122.6687         D2E/DX2 =    0.2169             !
 ! A65   A(23,24,25)           117.4017         D2E/DX2 =    0.0863             !
 ! A66   A(20,25,24)           120.5137         D2E/DX2 =    0.0958             !
 ! A67   A(20,25,26)           121.5636         D2E/DX2 =    0.2562             !
 ! A68   A(24,25,26)           117.9227         D2E/DX2 =    0.338              !
 ! A69   A(4,26,25)            123.0172         D2E/DX2 =    0.2459             !
 ! A70   A(4,26,41)            114.6307         D2E/DX2 =    0.1324             !
 ! A71   A(25,26,41)           122.3522         D2E/DX2 =    0.1255             !
 ! D1    D(31,1,13,10)        -180.0            D2E/DX2 =    0.0223             !
 ! D2    D(31,1,13,14)           0.0            D2E/DX2 =    0.0165             !
 ! D3    D(15,3,4,26)         -180.0            D2E/DX2 =    0.0103             !
 ! D4    D(15,3,4,42)            0.0            D2E/DX2 =    0.0079             !
 ! D5    D(4,3,15,14)          180.0            D2E/DX2 =    0.032              !
 ! D6    D(4,3,15,40)            0.0            D2E/DX2 =    0.0279             !
 ! D7    D(3,4,26,25)          180.0            D2E/DX2 =    0.0129             !
 ! D8    D(3,4,26,41)            0.0            D2E/DX2 =    0.0115             !
 ! D9    D(42,4,26,25)           0.0            D2E/DX2 =    0.0183             !
 ! D10   D(42,4,26,41)        -180.0            D2E/DX2 =    0.0212             !
 ! D11   D(7,5,6,11)             0.0            D2E/DX2 =    0.0088             !
 ! D12   D(7,5,6,30)           180.0            D2E/DX2 =    0.0083             !
 ! D13   D(29,5,6,11)          180.0            D2E/DX2 =    0.0088             !
 ! D14   D(29,5,6,30)            0.0            D2E/DX2 =    0.0093             !
 ! D15   D(6,5,7,8)              0.0            D2E/DX2 =    0.009              !
 ! D16   D(6,5,7,27)          -180.0            D2E/DX2 =    0.0081             !
 ! D17   D(29,5,7,8)           180.0            D2E/DX2 =    0.0081             !
 ! D18   D(29,5,7,27)            0.0            D2E/DX2 =    0.0088             !
 ! D19   D(5,6,11,9)           180.0            D2E/DX2 =    0.0062             !
 ! D20   D(5,6,11,12)            0.0            D2E/DX2 =    0.0072             !
 ! D21   D(30,6,11,9)            0.0            D2E/DX2 =    0.0074             !
 ! D22   D(30,6,11,12)         180.0            D2E/DX2 =    0.007              !
 ! D23   D(5,7,8,12)             0.0            D2E/DX2 =    0.0088             !
 ! D24   D(5,7,8,28)          -180.0            D2E/DX2 =    0.0079             !
 ! D25   D(27,7,8,12)          180.0            D2E/DX2 =    0.0088             !
 ! D26   D(27,7,8,28)            0.0            D2E/DX2 =    0.0091             !
 ! D27   D(7,8,12,11)            0.0            D2E/DX2 =    0.0066             !
 ! D28   D(7,8,12,14)          180.0            D2E/DX2 =    0.0064             !
 ! D29   D(28,8,12,11)         180.0            D2E/DX2 =    0.0065             !
 ! D30   D(28,8,12,14)           0.0            D2E/DX2 =    0.0071             !
 ! D31   D(11,9,10,13)           0.0            D2E/DX2 =    0.0077             !
 ! D32   D(11,9,10,32)         180.0            D2E/DX2 =    0.0089             !
 ! D33   D(33,9,10,13)         180.0            D2E/DX2 =    0.0082             !
 ! D34   D(33,9,10,32)           0.0            D2E/DX2 =    0.0095             !
 ! D35   D(10,9,11,6)         -180.0            D2E/DX2 =    0.0058             !
 ! D36   D(10,9,11,12)           0.0            D2E/DX2 =    0.0068             !
 ! D37   D(33,9,11,6)            0.0            D2E/DX2 =    0.0074             !
 ! D38   D(33,9,11,12)         180.0            D2E/DX2 =    0.0068             !
 ! D39   D(9,10,13,1)         -180.0            D2E/DX2 =    0.0092             !
 ! D40   D(9,10,13,14)           0.0            D2E/DX2 =    0.0069             !
 ! D41   D(32,10,13,1)           0.0            D2E/DX2 =    0.0097             !
 ! D42   D(32,10,13,14)        180.0            D2E/DX2 =    0.0067             !
 ! D43   D(6,11,12,8)            0.0            D2E/DX2 =    0.0052             !
 ! D44   D(6,11,12,14)        -180.0            D2E/DX2 =    0.005              !
 ! D45   D(9,11,12,8)         -180.0            D2E/DX2 =    0.0045             !
 ! D46   D(9,11,12,14)           0.0            D2E/DX2 =    0.005              !
 ! D47   D(8,12,14,13)         180.0            D2E/DX2 =    0.0047             !
 ! D48   D(8,12,14,15)           0.0            D2E/DX2 =    0.0049             !
 ! D49   D(11,12,14,13)          0.0            D2E/DX2 =    0.005              !
 ! D50   D(11,12,14,15)        180.0            D2E/DX2 =    0.0058             !
 ! D51   D(1,13,14,12)        -180.0            D2E/DX2 =    0.0111             !
 ! D52   D(1,13,14,15)           0.0            D2E/DX2 =    0.0127             !
 ! D53   D(10,13,14,12)          0.0            D2E/DX2 =    0.0058             !
 ! D54   D(10,13,14,15)       -180.0            D2E/DX2 =    0.0069             !
 ! D55   D(12,14,15,3)         180.0            D2E/DX2 =    0.0174             !
 ! D56   D(12,14,15,40)          0.0            D2E/DX2 =    0.0095             !
 ! D57   D(13,14,15,3)           0.0            D2E/DX2 =    0.0139             !
 ! D58   D(13,14,15,40)        180.0            D2E/DX2 =    0.0081             !
 ! D59   D(21,16,17,18)          0.0            D2E/DX2 =    0.009              !
 ! D60   D(21,16,17,35)        180.0            D2E/DX2 =    0.0086             !
 ! D61   D(34,16,17,18)        180.0            D2E/DX2 =    0.0083             !
 ! D62   D(34,16,17,35)          0.0            D2E/DX2 =    0.0091             !
 ! D63   D(17,16,21,20)          0.0            D2E/DX2 =    0.0073             !
 ! D64   D(17,16,21,22)        180.0            D2E/DX2 =    0.0064             !
 ! D65   D(34,16,21,20)        180.0            D2E/DX2 =    0.0073             !
 ! D66   D(34,16,21,22)          0.0            D2E/DX2 =    0.0074             !
 ! D67   D(16,17,18,19)          0.0            D2E/DX2 =    0.0091             !
 ! D68   D(16,17,18,36)       -180.0            D2E/DX2 =    0.0083             !
 ! D69   D(35,17,18,19)        180.0            D2E/DX2 =    0.0083             !
 ! D70   D(35,17,18,36)          0.0            D2E/DX2 =    0.0089             !
 ! D71   D(17,18,19,20)          0.0            D2E/DX2 =    0.0088             !
 ! D72   D(17,18,19,37)       -180.0            D2E/DX2 =    0.0079             !
 ! D73   D(36,18,19,20)       -180.0            D2E/DX2 =    0.0086             !
 ! D74   D(36,18,19,37)          0.0            D2E/DX2 =    0.0089             !
 ! D75   D(18,19,20,21)          0.0            D2E/DX2 =    0.0066             !
 ! D76   D(18,19,20,25)        180.0            D2E/DX2 =    0.0065             !
 ! D77   D(37,19,20,21)        180.0            D2E/DX2 =    0.0067             !
 ! D78   D(37,19,20,25)          0.0            D2E/DX2 =    0.0072             !
 ! D79   D(19,20,21,16)          0.0            D2E/DX2 =    0.0053             !
 ! D80   D(19,20,21,22)       -180.0            D2E/DX2 =    0.0044             !
 ! D81   D(25,20,21,16)       -180.0            D2E/DX2 =    0.0049             !
 ! D82   D(25,20,21,22)          0.0            D2E/DX2 =    0.0048             !
 ! D83   D(19,20,25,24)        180.0            D2E/DX2 =    0.0046             !
 ! D84   D(19,20,25,26)         -0.0001         D2E/DX2 =    0.0038             !
 ! D85   D(21,20,25,24)          0.0            D2E/DX2 =    0.0048             !
 ! D86   D(21,20,25,26)        180.0            D2E/DX2 =    0.004              !
 ! D87   D(16,21,22,23)       -180.0            D2E/DX2 =    0.0054             !
 ! D88   D(16,21,22,38)          0.0            D2E/DX2 =    0.0073             !
 ! D89   D(20,21,22,23)          0.0            D2E/DX2 =    0.0064             !
 ! D90   D(20,21,22,38)        180.0            D2E/DX2 =    0.0067             !
 ! D91   D(21,22,23,24)          0.0            D2E/DX2 =    0.0075             !
 ! D92   D(21,22,23,39)        180.0            D2E/DX2 =    0.0094             !
 ! D93   D(38,22,23,24)       -180.0            D2E/DX2 =    0.0085             !
 ! D94   D(38,22,23,39)          0.0            D2E/DX2 =    0.0102             !
 ! D95   D(22,23,24,2)         180.0            D2E/DX2 =    0.0104             !
 ! D96   D(22,23,24,25)          0.0            D2E/DX2 =    0.0077             !
 ! D97   D(39,23,24,2)           0.0            D2E/DX2 =    0.0129             !
 ! D98   D(39,23,24,25)        180.0            D2E/DX2 =    0.0077             !
 ! D99   D(2,24,25,20)        -180.0            D2E/DX2 =    0.0134             !
 ! D100  D(2,24,25,26)           0.0            D2E/DX2 =    0.0132             !
 ! D101  D(23,24,25,20)          0.0            D2E/DX2 =    0.0064             !
 ! D102  D(23,24,25,26)       -180.0            D2E/DX2 =    0.0054             !
 ! D103  D(20,25,26,4)         180.0            D2E/DX2 =    0.0204             !
 ! D104  D(20,25,26,41)          0.0            D2E/DX2 =    0.0121             !
 ! D105  D(24,25,26,4)           0.0            D2E/DX2 =    0.0206             !
 ! D106  D(24,25,26,41)        180.0            D2E/DX2 =    0.0131             !
 --------------------------------------------------------------------------------
 Trust Radius=3.00D-01 FncErr=1.00D-07 GrdErr=1.00D-06 EigMax=2.50D+02 EigMin=1.00D-04
 Number of steps in this run=    232 maximum allowed number of steps=    252.
 GradGradGradGradGradGradGradGradGradGradGradGradGradGradGradGradGradGrad

                          Input orientation:                          
 ---------------------------------------------------------------------
 Center     Atomic      Atomic             Coordinates (Angstroms)
 Number     Number       Type             X           Y           Z
 ---------------------------------------------------------------------
      1          8           0        1.947089    2.646386    0.004894
      2          8           0       -1.805228   -2.483250   -0.003142
      3          7           0        0.564174    0.454072    0.001510
      4          7           0       -0.577895   -0.287408    0.000216
      5          6           0        6.650835   -1.696603   -0.000153
      6          6           0        6.643951   -0.327142    0.001767
      7          6           0        5.426033   -2.388826   -0.001396
      8          6           0        4.232710   -1.710570   -0.000710
      9          6           0        5.434566    1.818861    0.004509
     10          6           0        4.277367    2.531736    0.005252
     11          6           0        5.430107    0.396724    0.002513
     12          6           0        4.188529   -0.294225    0.001267
     13          6           0        3.028179    1.863315    0.004036
     14          6           0        2.962167    0.466667    0.002062
     15          6           0        1.677326   -0.197833    0.000843
     16          6           0       -6.689088    0.123345   -0.000570
     17          6           0       -6.803933    1.496643    0.001333
     18          6           0       -5.642031    2.273938    0.002685
     19          6           0       -4.396109    1.679173    0.002127
     20          6           0       -4.251693    0.280217    0.000194
     21          6           0       -5.431208   -0.498856   -0.001164
     22          6           0       -5.330703   -1.938340   -0.003163
     23          6           0       -4.149345   -2.583754   -0.003806
     24          6           0       -2.892319   -1.855771   -0.002503
     25          6           0       -2.960244   -0.401808   -0.000476
     26          6           0       -1.768205    0.303089    0.000779
     27          1           0        5.421716   -3.473981   -0.002920
     28          1           0        3.317778   -2.289869   -0.001726
     29          1           0        7.586699   -2.244585   -0.000713
     30          1           0        7.576469    0.229621    0.002756
     31          1           0        1.144699    2.072563    0.003911
     32          1           0        4.265212    3.615274    0.006769
     33          1           0        6.390826    2.333444    0.005444
     34          1           0       -7.577779   -0.501349   -0.001646
     35          1           0       -7.780282    1.968676    0.001779
     36          1           0       -5.715186    3.356754    0.004190
     37          1           0       -3.522493    2.321110    0.003224
     38          1           0       -6.258571   -2.504717   -0.004166
     39          1           0       -4.078433   -3.665381   -0.005310
     40          1           0        1.648890   -1.287066   -0.000692
     41          1           0       -1.734988    1.387351    0.002309
     42          1           0       -0.625596   -1.332956   -0.001263
 ---------------------------------------------------------------------
                    Distance matrix (angstroms):
                    1          2          3          4          5
     1  O    0.000000
     2  O    6.355558   0.000000
     3  N    2.592047   3.773851   0.000000
     4  N    3.870751   2.515568   1.361659   0.000000
     5  C    6.402094   8.492575   6.455452   7.364806   0.000000
     6  C    5.558992   8.719946   6.129762   7.221955   1.369479
     7  C    6.120167   7.231878   5.632029   6.361062   1.406882
     8  C    4.920077   6.087178   4.259558   5.016703   2.418166
     9  C    3.584312   8.421570   5.058001   6.370720   3.719922
    10  C    2.333097   7.883408   4.254939   5.614371   4.848941
    11  C    4.146372   7.787449   4.866271   6.046828   2.423263
    12  C    3.697467   6.380986   3.700797   4.766429   2.833658
    13  C    1.334900   6.500347   2.838537   4.198737   5.079042
    14  C    2.404489   5.606255   2.398027   3.619485   4.276215
    15  C    2.856986   4.165493   1.289996   2.256999   5.194430
    16  C    8.997184   5.535922   7.260798   6.124982  13.463498
    17  C    8.826228   6.389571   7.441502   6.476603  13.828507
    18  C    7.598254   6.111623   6.467526   5.675031  12.918196
    19  C    6.416515   4.902903   5.109332   4.294904  11.551227
    20  C    6.635033   3.690793   4.819003   3.717390  11.080295
    21  C    8.020713   4.133467   6.070640   4.857917  12.141267
    22  C    8.601514   3.567338   6.361858   5.031379  11.983978
    23  C    8.032493   2.346271   5.607644   4.245995  10.836556
    24  C    6.609791   1.255187   4.157251   2.795770   9.544482
    25  C    5.776974   2.380435   3.626852   2.385095   9.697904
    26  C    4.392547   2.786588   2.337261   1.328731   8.653266
    27  H    7.037897   7.294537   6.247027   6.793349   2.160975
    28  H    5.123032   5.126655   3.887359   4.380197   3.385445
    29  H    7.465041   9.394960   7.523205   8.395900   1.084493
    30  H    6.126229   9.766061   7.015887   8.170739   2.137088
    31  H    0.986460   5.427481   1.719456   2.921781   6.672643
    32  H    2.512457   8.604785   4.867330   6.219859   5.822996
    33  H    4.454743   9.506626   6.122249   7.445265   4.038429
    34  H   10.031519   6.103301   8.197819   7.003153  14.278729
    35  H    9.750951   7.451238   8.480800   7.547470  14.889306
    36  H    7.695133   7.028048   6.917797   6.298546  13.358701
    37  H    5.479246   5.102051   4.492959   3.933832  10.937945
    38  H    9.688487   4.453394   7.436686   6.098078  12.934675
    39  H    8.726134   2.562205   6.206749   4.864617  10.908405
    40  H    3.944743   3.655379   2.051384   2.440878   5.018683
    41  H    3.891384   3.871242   2.481361   2.035604   8.934921
    42  H    4.738556   1.647638   2.146865   1.046637   7.285513
                    6          7          8          9         10
     6  C    0.000000
     7  C    2.394551   0.000000
     8  C    2.779921   1.372607   0.000000
     9  C    2.463321   4.207699   3.728454   0.000000
    10  C    3.711322   5.052860   4.242545   1.359154   0.000000
    11  C    1.413294   2.785555   2.423728   1.422145   2.426333
    12  C    2.455642   2.432853   1.417035   2.453110   2.827359
    13  C    4.227518   4.881642   3.771415   2.406797   1.416778
    14  C    3.766386   3.771536   2.520842   2.818011   2.448320
    15  C    4.968308   4.342033   2.969572   4.264260   3.769719
    16  C   13.340647  12.372840  11.074697  12.241641  11.227801
    17  C   13.570990  12.832339  11.493202  12.242740  11.129539
    18  C   12.558303  12.010138  10.648325  11.085942   9.922748
    19  C   11.220883  10.631232   9.270754   9.831667   8.715277
    20  C   10.912558  10.039032   8.714833   9.807703   8.821237
    21  C   12.076379  11.020510   9.739586  11.110215  10.170592
    22  C   12.082563  10.766165   9.566125  11.402089  10.597012
    23  C   11.026675   9.577362   8.427414  10.546773   9.857880
    24  C    9.658010   8.335413   7.126508   9.101647   8.405633
    25  C    9.604485   8.618462   7.311049   8.683561   7.809528
    26  C    8.435731   7.681371   6.329755   7.360536   6.443278
    27  H    3.375866   1.085165   2.126819   5.292863   6.113774
    28  H    3.862089   2.110575   1.082907   4.621957   4.916171
    29  H    2.136672   2.165476   3.396236   4.598184   5.810762
    30  H    1.086083   3.388312   3.865887   2.667102   4.022910
    31  H    6.000029   6.183351   4.883433   4.297362   3.166141
    32  H    4.604462   6.115291   5.325948   2.143477   1.083607
    33  H    2.672602   4.819824   4.583836   1.085924   2.122741
    34  H   14.222797  13.140079  11.872231  13.217584  12.236999
    35  H   14.605796  13.906638  12.563790  13.215697  12.070789
    36  H   12.896486  12.535488  11.164157  11.255313  10.026553
    37  H   10.505705  10.112351   8.740574   8.971129   7.802704
    38  H   13.084988  11.685178  10.521295  12.466869  11.677839
    39  H   11.230022   9.589811   8.537938  10.980626  10.403065
    40  H    5.086462   3.934550   2.618297   4.896749   4.635965
    41  H    8.552549   8.095662   6.723878   7.182528   6.120298
    42  H    7.338800   6.143051   4.872959   6.830779   6.242991
                   11         12         13         14         15
    11  C    0.000000
    12  C    1.420890   0.000000
    13  C    2.814276   2.449775   0.000000
    14  C    2.468931   1.443233   1.398208   0.000000
    15  C    3.799588   2.513052   2.464375   1.446506   0.000000
    16  C   12.122279  10.885629   9.871818   9.657360   8.372577
    17  C   12.283385  11.137389   9.838947   9.820263   8.648873
    18  C   11.230146  10.160481   8.679929   8.791954   7.725455
    19  C    9.909551   8.808536   7.426571   7.457506   6.356868
    20  C    9.682501   8.459747   7.450016   7.216269   5.948260
    21  C   10.898175   9.621913   8.783001   8.448727   7.114905
    22  C   11.011249   9.660172   9.182786   8.634570   7.220932
    23  C   10.032407   8.646509   8.443538   7.738134   6.296248
    24  C    8.621863   7.250989   6.991705   6.298313   4.861113
    25  C    8.428265   7.149583   6.402501   5.985751   4.642054
    26  C    7.198921   5.986607   5.043770   4.733200   3.481753
    27  H    3.870718   3.410516   5.849427   4.645225   4.975301
    28  H    3.417562   2.177341   4.163273   2.779382   2.658516
    29  H    3.409899   3.918095   6.136365   5.360708   6.253790
    30  H    2.152857   3.428200   4.832794   4.620386   5.914610
    31  H    4.601430   3.855722   1.895067   2.425303   2.332037
    32  H    3.422873   3.910254   2.144672   3.407590   4.608359
    33  H    2.161915   3.428524   3.395353   3.903917   5.350184
    34  H   13.038852  11.768131  10.866371  10.584306   9.260081
    35  H   13.303587  12.180852  10.808975  10.846947   9.702583
    36  H   11.531666  10.555246   8.869993   9.145986   8.202702
    37  H    9.157091   8.142472   6.566650   6.744612   5.777820
    38  H   12.043404  10.678398  10.262723   9.687681   8.264393
    39  H   10.339878   8.927900   9.003915   8.163573   6.719575
    40  H    4.139174   2.726812   3.439093   2.190955   1.089605
    41  H    7.233252   6.157577   4.786889   4.786536   3.762539
    42  H    6.297884   4.924913   4.854508   4.013814   2.567481
                   16         17         18         19         20
    16  C    0.000000
    17  C    1.378092   0.000000
    18  C    2.391942   1.397929   0.000000
    19  C    2.770986   2.414733   1.380605   0.000000
    20  C    2.442439   2.827300   2.430632   1.406392   0.000000
    21  C    1.403353   2.422064   2.780800   2.411483   1.413581
    22  C    2.468960   3.737584   4.223772   3.736295   2.467037
    23  C    3.711966   4.867905   5.081862   4.270067   2.865802
    24  C    4.281631   5.151643   4.961396   3.841515   2.531867
    25  C    3.765643   4.286964   3.788352   2.528279   1.460479
    26  C    4.924165   5.175242   4.346353   2.966393   2.483593
    27  H   12.633778  13.197485  12.467763  11.088044  10.376360
    28  H   10.293735  10.806791  10.055175   8.675100   7.993888
    29  H   14.470840  14.868997  13.979141  12.608869  12.104633
    30  H   14.265953  14.436111  13.375649  12.060009  11.828270
    31  H    8.072651   7.969470   6.789718   5.554756   5.686261
    32  H   11.497404  11.270075   9.997633   8.875076   9.146601
    33  H   13.265321  13.221268  12.033005  10.806760  10.838772
    34  H    1.086285   2.142619   3.383690   3.857164   3.416680
    35  H    2.143818   1.084469   2.159931   3.396534   3.911757
    36  H    3.376898   2.155317   1.085285   2.134068   3.406891
    37  H    3.854544   3.383430   2.120063   1.084107   2.167253
    38  H    2.663094   4.038357   4.818268   4.579709   3.432701
    39  H    4.601086   5.837369   6.141695   5.353992   3.949404
    40  H    8.456426   8.899396   8.114080   6.733542   6.105182
    41  H    5.112810   5.070123   4.006373   2.677074   2.749464
    42  H    6.235924   6.795475   6.178538   4.825940   3.968741
                   21         22         23         24         25
    21  C    0.000000
    22  C    1.442990   0.000000
    23  C    2.447443   1.346167   0.000000
    24  C    2.878746   2.439782   1.452610   0.000000
    25  C    2.472868   2.824892   2.484926   1.455550   0.000000
    26  C    3.749761   4.208968   3.742153   2.433993   1.384861
    27  H   11.253325  10.861525   9.612373   8.470052   8.927234
    28  H    8.930425   8.655623   7.472905   6.225251   6.555787
    29  H   13.134438  12.921033  11.740945  10.486229  10.706720
    30  H   13.028060  13.087979  12.058600  10.674474  10.555616
    31  H    7.060791   7.616970   7.050408   5.632882   4.793025
    32  H   10.533122  11.087124  10.451451   9.009032   8.267056
    33  H   12.156581  12.475675  11.630741  10.184614   9.742903
    34  H    2.146573   2.667264   4.011306   4.877294   4.618608
    35  H    3.406886   4.611425   5.823088   6.206336   5.371403
    36  H    3.866057   5.309040   6.143415   5.927819   4.660098
    37  H    3.405205   4.627373   4.944763   4.224156   2.780364
    38  H    2.169796   1.087070   2.110706   3.428233   3.911674
    39  H    3.443385   2.133273   1.083950   2.163691   3.449822
    40  H    7.123837   7.009913   5.941459   4.576680   4.693378
    41  H    4.149678   4.897899   4.647454   3.443440   2.168490
    42  H    4.877461   4.743894   3.739159   2.326235   2.513488
                   26         27         28         29         30
    26  C    0.000000
    27  H    8.121652   0.000000
    28  H    5.708823   2.414265   0.000000
    29  H    9.695611   2.489693   4.269161   0.000000
    30  H    9.344963   4.284818   4.948161   2.474230   0.000000
    31  H    3.408234   7.004075   4.873717   7.754814   6.690597
    32  H    6.882784   7.182975   5.980670   6.735746   4.735724
    33  H    8.407863   5.887735   5.551459   4.731649   2.414917
    34  H    5.865004  13.335045  11.041376  15.264347  15.171868
    35  H    6.238530  14.279891  11.887059  15.934105  15.454906
    36  H    4.990344  13.064822  10.652644  14.433127  13.654561
    37  H    2.673938  10.657486   8.249271  12.010818  11.294303
    38  H    5.295959  11.720434   9.578759  13.847714  14.102658
    39  H    4.591943   9.502077   7.523030  11.751340  12.288525
    40  H    3.768969   4.360828   1.946999   6.014518   6.118541
    41  H    1.084771   8.651647   6.249193  10.004240   9.383153
    42  H    1.995546   6.415137   4.057818   8.262739   8.349583
                   31         32         33         34         35
    31  H    0.000000
    32  H    3.481029   0.000000
    33  H    5.252610   2.482202   0.000000
    34  H    9.094321  12.538065  14.253352   0.000000
    35  H    8.925586  12.157517  14.175803   2.478315   0.000000
    36  H    6.979052   9.983745  12.149185   4.284185   2.488250
    37  H    4.673806   7.894506   9.913328   4.940814   4.272350
    38  H    8.704020  12.173923  13.543084   2.398708   4.725133
    39  H    7.759200  11.073594  12.066126   4.717684   6.741390
    40  H    3.397254   5.556809   5.966079   9.260063   9.975427
    41  H    2.960088   6.400473   8.180707   6.140473   6.073180
    42  H    3.838168   6.957373   7.916610   7.001744   7.879741
                   36         37         38         39         40
    36  H    0.000000
    37  H    2.424965   0.000000
    38  H    5.886609   5.547502   0.000000
    39  H    7.210369   6.012256   2.469847   0.000000
    40  H    8.706015   6.305724   8.000663   6.201502   0.000000
    41  H    4.440780   2.016701   5.967498   5.569729   4.313136
    42  H    6.920790   4.663072   5.753558   4.166809   2.274949
                   41         42
    41  H    0.000000
    42  H    2.937828   0.000000
 Stoichiometry    C22H16N2O2
 Framework group  C1[X(C22H16N2O2)]
 Deg. of freedom   120
 Full point group                 C1      NOp   1
 Largest Abelian subgroup         C1      NOp   1
 Largest concise Abelian subgroup C1      NOp   1
                         Standard orientation:                         
 ---------------------------------------------------------------------
 Center     Atomic      Atomic             Coordinates (Angstroms)
 Number     Number       Type             X           Y           Z
 ---------------------------------------------------------------------
      1          8           0        1.963017   -2.647557    0.000001
      2          8           0       -1.808344    2.468101    0.000001
      3          7           0        0.571961   -0.460396   -0.000001
      4          7           0       -0.572856    0.276834   -0.000001
      5          6           0        6.650586    1.712891   -0.000001
      6          6           0        6.648792    0.343413    0.000000
      7          6           0        5.423218    2.400557   -0.000002
      8          6           0        4.232425    1.717869   -0.000002
      9          6           0        5.447393   -1.807073    0.000002
     10          6           0        4.292853   -2.524245    0.000002
     11          6           0        5.437648   -0.384961    0.000000
     12          6           0        4.193510    0.301369   -0.000000
     13          6           0        3.041189   -1.860472    0.000001
     14          6           0        2.969985   -0.464077    0.000000
     15          6           0        1.682683    0.195643   -0.000000
     16          6           0       -6.682480   -0.156633    0.000001
     17          6           0       -6.792219   -1.530349   -0.000001
     18          6           0       -5.627436   -2.303321   -0.000002
     19          6           0       -4.383733   -1.703928   -0.000002
     20          6           0       -4.244518   -0.304444   -0.000001
     21          6           0       -5.426921    0.470240    0.000001
     22          6           0       -5.331769    1.910090    0.000002
     23          6           0       -4.152818    2.559890    0.000002
     24          6           0       -2.893094    1.836585    0.000001
     25          6           0       -2.955614    0.382378   -0.000000
     26          6           0       -1.760963   -0.318084   -0.000001
     27          1           0        5.414868    3.485690   -0.000003
     28          1           0        3.315347    2.293765   -0.000002
     29          1           0        7.584406    2.264349   -0.000001
     30          1           0        7.583374   -0.209881    0.000001
     31          1           0        1.158500   -2.076719    0.000001
     32          1           0        4.284726   -3.607822    0.000003
     33          1           0        6.405561   -2.318098    0.000002
     34          1           0       -7.573487    0.464754    0.000002
     35          1           0       -7.766806   -2.006009   -0.000001
     36          1           0       -5.696564   -3.386402   -0.000003
     37          1           0       -3.507737   -2.342614   -0.000003
     38          1           0       -6.261735    2.473014    0.000003
     39          1           0       -4.085927    3.641775    0.000003
     40          1           0        1.650197    1.284764   -0.000001
     41          1           0       -1.723715   -1.402216   -0.000001
     42          1           0       -0.624443    1.322199   -0.000000
 ---------------------------------------------------------------------
 Rotational constants (GHZ):           0.5576531           0.0759918           0.0668782
 Standard basis: 6-31G(d,p) (6D, 7F)
 There are   470 symmetry adapted cartesian basis functions of A   symmetry.
 There are   470 symmetry adapted basis functions of A   symmetry.
   470 basis functions,   840 primitive gaussians,   470 cartesian basis functions
    89 alpha electrons       89 beta electrons
       nuclear repulsion energy      1996.9734674832 Hartrees.
 NAtoms=   42 NActive=   42 NUniq=   42 SFac= 1.00D+00 NAtFMM=   60 NAOKFM=F Big=F
 Integral buffers will be    131072 words long.
 Raffenetti 2 integral format.
 Two-electron integral symmetry is turned on.
 One-electron integrals computed using PRISM.
 NBasis=   470 RedAO= T EigKep=  2.36D-04  NBF=   470
 NBsUse=   470 1.00D-06 EigRej= -1.00D+00 NBFU=   470
 Initial guess from the checkpoint file:  "PY101_keto_CB.chk"
 B after Tr=     0.000000    0.000000    0.000000
         Rot=    1.000000    0.000000    0.000000   -0.000000 Ang=   0.00 deg.
 Requested convergence on RMS density matrix=1.00D-08 within 128 cycles.
 Requested convergence on MAX density matrix=1.00D-06.
 Requested convergence on             energy=1.00D-06.
 No special actions if energy rises.
 SCF Done:  E(RCAM-B3LYP) =  -1107.36139599     A.U. after    1 cycles
            NFock=  1  Conv=0.26D-08     -V/T= 2.0089

 **********************************************************************

            Population analysis using the SCF density.

 **********************************************************************

 Orbital symmetries:
       Occupied  (A) (A) (A) (A) (A) (A) (A) (A) (A) (A) (A) (A)
                 (A) (A) (A) (A) (A) (A) (A) (A) (A) (A) (A) (A)
                 (A) (A) (A) (A) (A) (A) (A) (A) (A) (A) (A) (A)
                 (A) (A) (A) (A) (A) (A) (A) (A) (A) (A) (A) (A)
                 (A) (A) (A) (A) (A) (A) (A) (A) (A) (A) (A) (A)
                 (A) (A) (A) (A) (A) (A) (A) (A) (A) (A) (A) (A)
                 (A) (A) (A) (A) (A) (A) (A) (A) (A) (A) (A) (A)
                 (A) (A) (A) (A) (A)
       Virtual   (A) (A) (A) (A) (A) (A) (A) (A) (A) (A) (A) (A)
                 (A) (A) (A) (A) (A) (A) (A) (A) (A) (A) (A) (A)
                 (A) (A) (A) (A) (A) (A) (A) (A) (A) (A) (A) (A)
                 (A) (A) (A) (A) (A) (A) (A) (A) (A) (A) (A) (A)
                 (A) (A) (A) (A) (A) (A) (A) (A) (A) (A) (A) (A)
                 (A) (A) (A) (A) (A) (A) (A) (A) (A) (A) (A) (A)
                 (A) (A) (A) (A) (A) (A) (A) (A) (A) (A) (A) (A)
                 (A) (A) (A) (A) (A) (A) (A) (A) (A) (A) (A) (A)
                 (A) (A) (A) (A) (A) (A) (A) (A) (A) (A) (A) (A)
                 (A) (A) (A) (A) (A) (A) (A) (A) (A) (A) (A) (A)
                 (A) (A) (A) (A) (A) (A) (A) (A) (A) (A) (A) (A)
                 (A) (A) (A) (A) (A) (A) (A) (A) (A) (A) (A) (A)
                 (A) (A) (A) (A) (A) (A) (A) (A) (A) (A) (A) (A)
                 (A) (A) (A) (A) (A) (A) (A) (A) (A) (A) (A) (A)
                 (A) (A) (A) (A) (A) (A) (A) (A) (A) (A) (A) (A)
                 (A) (A) (A) (A) (A) (A) (A) (A) (A) (A) (A) (A)
                 (A) (A) (A) (A) (A) (A) (A) (A) (A) (A) (A) (A)
                 (A) (A) (A) (A) (A) (A) (A) (A) (A) (A) (A) (A)
                 (A) (A) (A) (A) (A) (A) (A) (A) (A) (A) (A) (A)
                 (A) (A) (A) (A) (A) (A) (A) (A) (A) (A) (A) (A)
                 (A) (A) (A) (A) (A) (A) (A) (A) (A) (A) (A) (A)
                 (A) (A) (A) (A) (A) (A) (A) (A) (A) (A) (A) (A)
                 (A) (A) (A) (A) (A) (A) (A) (A) (A) (A) (A) (A)
                 (A) (A) (A) (A) (A) (A) (A) (A) (A) (A) (A) (A)
                 (A) (A) (A) (A) (A) (A) (A) (A) (A) (A) (A) (A)
                 (A) (A) (A) (A) (A) (A) (A) (A) (A) (A) (A) (A)
                 (A) (A) (A) (A) (A) (A) (A) (A) (A) (A) (A) (A)
                 (A) (A) (A) (A) (A) (A) (A) (A) (A) (A) (A) (A)
                 (A) (A) (A) (A) (A) (A) (A) (A) (A) (A) (A) (A)
                 (A) (A) (A) (A) (A) (A) (A) (A) (A) (A) (A) (A)
                 (A) (A) (A) (A) (A) (A) (A) (A) (A) (A) (A) (A)
                 (A) (A) (A) (A) (A) (A) (A) (A) (A)
 The electronic state is 1-A.
 Alpha  occ. eigenvalues --  -19.24526 -19.18786 -14.48520 -14.46895 -10.34044
 Alpha  occ. eigenvalues --  -10.33371 -10.33232 -10.32931 -10.28674 -10.28012
 Alpha  occ. eigenvalues --  -10.27933 -10.27916 -10.27590 -10.27431 -10.27001
 Alpha  occ. eigenvalues --  -10.26952 -10.26853 -10.26800 -10.26798 -10.26543
 Alpha  occ. eigenvalues --  -10.26498 -10.26479 -10.26445 -10.26322 -10.25959
 Alpha  occ. eigenvalues --  -10.25591  -1.14930  -1.12812  -1.09180  -0.97984
 Alpha  occ. eigenvalues --   -0.96378  -0.95431  -0.90903  -0.89501  -0.87762
 Alpha  occ. eigenvalues --   -0.85900  -0.82655  -0.81869  -0.81280  -0.79918
 Alpha  occ. eigenvalues --   -0.75369  -0.72695  -0.71755  -0.70146  -0.69311
 Alpha  occ. eigenvalues --   -0.68239  -0.67402  -0.65894  -0.64674  -0.60706
 Alpha  occ. eigenvalues --   -0.60400  -0.58950  -0.58555  -0.57051  -0.55152
 Alpha  occ. eigenvalues --   -0.54956  -0.52939  -0.52712  -0.52290  -0.51482
 Alpha  occ. eigenvalues --   -0.51293  -0.49878  -0.49611  -0.49562  -0.48996
 Alpha  occ. eigenvalues --   -0.48888  -0.48366  -0.47342  -0.47069  -0.45994
 Alpha  occ. eigenvalues --   -0.44941  -0.44898  -0.44502  -0.43562  -0.41362
 Alpha  occ. eigenvalues --   -0.41013  -0.40777  -0.39974  -0.39952  -0.37620
 Alpha  occ. eigenvalues --   -0.36828  -0.36082  -0.35205  -0.32437  -0.30428
 Alpha  occ. eigenvalues --   -0.28911  -0.28218  -0.26867  -0.23872
 Alpha virt. eigenvalues --   -0.03943  -0.00418   0.02583   0.03877   0.04162
 Alpha virt. eigenvalues --    0.05683   0.10654   0.11446   0.12380   0.14152
 Alpha virt. eigenvalues --    0.14560   0.15103   0.16817   0.17017   0.17833
 Alpha virt. eigenvalues --    0.18471   0.18824   0.20288   0.20805   0.21184
 Alpha virt. eigenvalues --    0.22131   0.22343   0.22688   0.24055   0.25175
 Alpha virt. eigenvalues --    0.27273   0.27468   0.27887   0.28827   0.29279
 Alpha virt. eigenvalues --    0.30145   0.30883   0.31929   0.33548   0.34674
 Alpha virt. eigenvalues --    0.35720   0.36265   0.36561   0.37387   0.37515
 Alpha virt. eigenvalues --    0.37970   0.39614   0.40823   0.43460   0.43727
 Alpha virt. eigenvalues --    0.44936   0.47280   0.48359   0.49398   0.52681
 Alpha virt. eigenvalues --    0.53110   0.53312   0.54937   0.55492   0.55639
 Alpha virt. eigenvalues --    0.56448   0.57546   0.58326   0.58693   0.59204
 Alpha virt. eigenvalues --    0.59332   0.59532   0.60076   0.60077   0.60499
 Alpha virt. eigenvalues --    0.61245   0.61565   0.62109   0.62775   0.63956
 Alpha virt. eigenvalues --    0.64546   0.64581   0.64705   0.65300   0.65476
 Alpha virt. eigenvalues --    0.66585   0.66726   0.66756   0.66987   0.67094
 Alpha virt. eigenvalues --    0.67708   0.67820   0.67999   0.68754   0.69029
 Alpha virt. eigenvalues --    0.69327   0.69829   0.70571   0.71517   0.72161
 Alpha virt. eigenvalues --    0.72586   0.73782   0.74172   0.74652   0.75091
 Alpha virt. eigenvalues --    0.75323   0.76646   0.77454   0.81867   0.83233
 Alpha virt. eigenvalues --    0.83346   0.83986   0.84568   0.85498   0.86599
 Alpha virt. eigenvalues --    0.86772   0.87576   0.88010   0.88414   0.88562
 Alpha virt. eigenvalues --    0.88984   0.91158   0.91716   0.92501   0.92573
 Alpha virt. eigenvalues --    0.92752   0.93119   0.93590   0.94924   0.95717
 Alpha virt. eigenvalues --    0.97020   0.98349   0.99240   0.99719   1.01114
 Alpha virt. eigenvalues --    1.02326   1.02464   1.03276   1.03624   1.04569
 Alpha virt. eigenvalues --    1.04590   1.05423   1.07746   1.09170   1.09639
 Alpha virt. eigenvalues --    1.09787   1.10600   1.11650   1.13382   1.16136
 Alpha virt. eigenvalues --    1.16562   1.17876   1.19800   1.20589   1.21815
 Alpha virt. eigenvalues --    1.23158   1.24287   1.25578   1.26268   1.26530
 Alpha virt. eigenvalues --    1.27873   1.28470   1.28938   1.29525   1.30345
 Alpha virt. eigenvalues --    1.31250   1.33168   1.34668   1.34864   1.35835
 Alpha virt. eigenvalues --    1.36123   1.36738   1.36915   1.40383   1.41020
 Alpha virt. eigenvalues --    1.41932   1.42812   1.43047   1.43794   1.44812
 Alpha virt. eigenvalues --    1.46214   1.46621   1.46960   1.48293   1.48301
 Alpha virt. eigenvalues --    1.48497   1.48859   1.48980   1.50014   1.50081
 Alpha virt. eigenvalues --    1.50747   1.52325   1.52847   1.54638   1.55221
 Alpha virt. eigenvalues --    1.57047   1.57865   1.58018   1.63090   1.67277
 Alpha virt. eigenvalues --    1.68252   1.69980   1.73200   1.75373   1.77610
 Alpha virt. eigenvalues --    1.79132   1.80094   1.80278   1.81565   1.82774
 Alpha virt. eigenvalues --    1.83101   1.84924   1.86830   1.87939   1.88218
 Alpha virt. eigenvalues --    1.89693   1.89850   1.90711   1.90720   1.91089
 Alpha virt. eigenvalues --    1.92821   1.93381   1.94576   1.95874   1.96270
 Alpha virt. eigenvalues --    1.97425   1.97794   1.97970   1.98705   1.98999
 Alpha virt. eigenvalues --    1.99343   2.00047   2.00197   2.00882   2.01208
 Alpha virt. eigenvalues --    2.01948   2.02998   2.04010   2.05690   2.06965
 Alpha virt. eigenvalues --    2.07097   2.07617   2.07960   2.09105   2.10152
 Alpha virt. eigenvalues --    2.10188   2.10877   2.12626   2.14823   2.15045
 Alpha virt. eigenvalues --    2.16742   2.18266   2.23431   2.23931   2.25282
 Alpha virt. eigenvalues --    2.26620   2.28317   2.30332   2.31947   2.32241
 Alpha virt. eigenvalues --    2.32628   2.33086   2.33557   2.34309   2.35181
 Alpha virt. eigenvalues --    2.36162   2.36636   2.37507   2.37518   2.38043
 Alpha virt. eigenvalues --    2.40731   2.41404   2.43739   2.44490   2.45368
 Alpha virt. eigenvalues --    2.45609   2.46324   2.46624   2.47124   2.48331
 Alpha virt. eigenvalues --    2.48448   2.50654   2.51107   2.51990   2.52535
 Alpha virt. eigenvalues --    2.53423   2.54279   2.54829   2.56341   2.56451
 Alpha virt. eigenvalues --    2.56958   2.57428   2.58906   2.61122   2.61235
 Alpha virt. eigenvalues --    2.61943   2.63523   2.63887   2.64873   2.65017
 Alpha virt. eigenvalues --    2.66369   2.67373   2.67509   2.68265   2.68638
 Alpha virt. eigenvalues --    2.69149   2.69524   2.69551   2.70880   2.71674
 Alpha virt. eigenvalues --    2.72475   2.74895   2.75598   2.77306   2.78621
 Alpha virt. eigenvalues --    2.79285   2.81177   2.81338   2.81971   2.82047
 Alpha virt. eigenvalues --    2.83253   2.85402   2.85499   2.86272   2.88346
 Alpha virt. eigenvalues --    2.89871   2.91522   2.92359   2.97487   2.99107
 Alpha virt. eigenvalues --    3.02598   3.04987   3.08023   3.08836   3.11437
 Alpha virt. eigenvalues --    3.12515   3.13158   3.18079   3.19383   3.20744
 Alpha virt. eigenvalues --    3.23670   3.25400   3.26538   3.27409   3.27818
 Alpha virt. eigenvalues --    3.31605   3.31719   3.33777   3.35221   3.35440
 Alpha virt. eigenvalues --    3.35816   3.41618   3.42137   3.47407   3.47936
 Alpha virt. eigenvalues --    3.55525   3.55765   3.58891   3.62848   3.67063
 Alpha virt. eigenvalues --    3.69376   3.79586   3.83075   3.95492   3.96036
 Alpha virt. eigenvalues --    3.98106   4.09734   4.14468   4.17115   4.17760
 Alpha virt. eigenvalues --    4.19860   4.20635   4.21430   4.21902   4.24985
 Alpha virt. eigenvalues --    4.25852   4.29021   4.34223   4.35136   4.44257
 Alpha virt. eigenvalues --    4.45401   4.45643   4.48302   4.57202   4.60388
 Alpha virt. eigenvalues --    4.62279   4.65657   4.75492   4.79925   5.00751
 Alpha virt. eigenvalues --    5.02147
          Condensed to atoms (all electrons):
               1          2          3          4          5          6
     1  O    8.118972   0.000000  -0.038764   0.001150  -0.000000  -0.000000
     2  O    0.000000   8.249048   0.002380  -0.048743   0.000000  -0.000000
     3  N   -0.038764   0.002380   6.886479   0.158178   0.000000   0.000000
     4  N    0.001150  -0.048743   0.158178   6.790863   0.000000  -0.000000
     5  C   -0.000000   0.000000   0.000000   0.000000   4.840745   0.526712
     6  C   -0.000000  -0.000000   0.000000  -0.000000   0.526712   4.977108
     7  C    0.000000  -0.000000  -0.000009   0.000000   0.506701  -0.022936
     8  C   -0.000027  -0.000000   0.000225   0.000004  -0.026558  -0.068238
     9  C    0.003233  -0.000000   0.000001   0.000000   0.008330  -0.083533
    10  C   -0.058192   0.000000   0.000033  -0.000001  -0.000407   0.007888
    11  C    0.000134   0.000000  -0.000086   0.000000  -0.015251   0.471839
    12  C    0.004711   0.000000   0.004429  -0.000032  -0.039759  -0.024296
    13  C    0.317734  -0.000000  -0.003117  -0.000023   0.000056  -0.000493
    14  C   -0.056176  -0.000004  -0.044865   0.007310  -0.000663   0.014112
    15  C   -0.016351  -0.000647   0.434263  -0.057730  -0.000008  -0.000117
    16  C   -0.000000  -0.000001  -0.000000   0.000000   0.000000   0.000000
    17  C    0.000000   0.000000  -0.000000   0.000000   0.000000   0.000000
    18  C   -0.000000   0.000000   0.000000  -0.000007   0.000000   0.000000
    19  C   -0.000000  -0.000017   0.000006   0.000279  -0.000000   0.000000
    20  C    0.000000   0.005902  -0.000069   0.004486   0.000000  -0.000000
    21  C    0.000000  -0.000074   0.000001  -0.000111  -0.000000   0.000000
    22  C   -0.000000   0.004861  -0.000000   0.000021  -0.000000   0.000000
    23  C    0.000000  -0.067062   0.000002  -0.000414  -0.000000   0.000000
    24  C   -0.000000   0.456676   0.000229  -0.004998   0.000000   0.000000
    25  C   -0.000002  -0.066062   0.005013  -0.032158   0.000000  -0.000000
    26  C   -0.000153  -0.023888  -0.050697   0.364189  -0.000000   0.000000
    27  H   -0.000000  -0.000000  -0.000000  -0.000000  -0.038438   0.004004
    28  H    0.000001   0.000000   0.000282   0.000008   0.004278   0.000652
    29  H    0.000000   0.000000  -0.000000  -0.000000   0.371256  -0.032797
    30  H    0.000000  -0.000000  -0.000000   0.000000  -0.040506   0.369840
    31  H    0.288482  -0.000001   0.078476  -0.003818  -0.000000  -0.000000
    32  H    0.000058  -0.000000   0.000009  -0.000000   0.000003  -0.000175
    33  H   -0.000069   0.000000  -0.000000   0.000000   0.000231  -0.008045
    34  H   -0.000000  -0.000000   0.000000  -0.000000   0.000000   0.000000
    35  H   -0.000000   0.000000  -0.000000  -0.000000   0.000000   0.000000
    36  H   -0.000000  -0.000000   0.000000  -0.000000   0.000000   0.000000
    37  H    0.000000   0.000000  -0.000023   0.000181   0.000000  -0.000000
    38  H    0.000000  -0.000077   0.000000  -0.000000   0.000000   0.000000
    39  H   -0.000000   0.002272  -0.000000   0.000006  -0.000000   0.000000
    40  H   -0.000373  -0.000317  -0.051882  -0.009986  -0.000009   0.000007
    41  H   -0.000159  -0.000403   0.003102  -0.049350  -0.000000   0.000000
    42  H   -0.000025   0.093572  -0.011468   0.264044  -0.000000  -0.000000
               7          8          9         10         11         12
     1  O    0.000000  -0.000027   0.003233  -0.058192   0.000134   0.004711
     2  O   -0.000000  -0.000000  -0.000000   0.000000   0.000000   0.000000
     3  N   -0.000009   0.000225   0.000001   0.000033  -0.000086   0.004429
     4  N    0.000000   0.000004   0.000000  -0.000001   0.000000  -0.000032
     5  C    0.506701  -0.026558   0.008330  -0.000407  -0.015251  -0.039759
     6  C   -0.022936  -0.068238  -0.083533   0.007888   0.471839  -0.024296
     7  C    4.816618   0.537895  -0.000738   0.000070  -0.037867  -0.008995
     8  C    0.537895   5.023579   0.014688  -0.001353  -0.053328   0.471069
     9  C   -0.000738   0.014688   4.999685   0.513527   0.432242  -0.025505
    10  C    0.000070  -0.001353   0.513527   4.930619  -0.005719  -0.043965
    11  C   -0.037867  -0.053328   0.432242  -0.005719   4.759805   0.491334
    12  C   -0.008995   0.471069  -0.025505  -0.043965   0.491334   4.831183
    13  C   -0.000193   0.010020  -0.004697   0.467913  -0.053785   0.021929
    14  C    0.008629  -0.093954  -0.063139  -0.043311  -0.011916   0.352453
    15  C    0.000155  -0.017394  -0.000456   0.007216   0.009076  -0.050194
    16  C    0.000000  -0.000000  -0.000000   0.000000   0.000000   0.000000
    17  C    0.000000  -0.000000   0.000000  -0.000000  -0.000000   0.000000
    18  C    0.000000   0.000000  -0.000000   0.000000   0.000000  -0.000000
    19  C    0.000000   0.000000  -0.000000   0.000000  -0.000000  -0.000000
    20  C   -0.000000  -0.000000   0.000000  -0.000000  -0.000000   0.000000
    21  C    0.000000  -0.000000   0.000000  -0.000000  -0.000000  -0.000000
    22  C    0.000000   0.000000  -0.000000   0.000000   0.000000  -0.000000
    23  C    0.000000  -0.000000  -0.000000  -0.000000   0.000000   0.000000
    24  C    0.000000   0.000000   0.000000  -0.000000  -0.000000  -0.000000
    25  C   -0.000000   0.000000  -0.000000   0.000000   0.000000   0.000000
    26  C    0.000000   0.000000  -0.000000  -0.000000  -0.000000   0.000000
    27  H    0.370357  -0.032255   0.000008  -0.000000   0.001183   0.002745
    28  H   -0.038296   0.364701  -0.000189   0.000023   0.004338  -0.033551
    29  H   -0.037718   0.004024  -0.000197   0.000003   0.002514   0.001115
    30  H    0.004383   0.000600  -0.008359   0.000319  -0.040105   0.004098
    31  H    0.000000   0.000017  -0.000141   0.004607  -0.000018  -0.000137
    32  H   -0.000000   0.000013  -0.032377   0.358729   0.002573   0.000820
    33  H    0.000017  -0.000202   0.368826  -0.036295  -0.039249   0.004359
    34  H    0.000000   0.000000   0.000000   0.000000   0.000000  -0.000000
    35  H    0.000000  -0.000000   0.000000   0.000000   0.000000  -0.000000
    36  H    0.000000   0.000000   0.000000   0.000000  -0.000000  -0.000000
    37  H    0.000000   0.000000   0.000000   0.000000  -0.000000   0.000000
    38  H   -0.000000  -0.000000  -0.000000  -0.000000   0.000000   0.000000
    39  H    0.000000   0.000000   0.000000  -0.000000  -0.000000  -0.000000
    40  H    0.000442   0.004068   0.000014  -0.000178  -0.000214  -0.012904
    41  H    0.000000   0.000000   0.000000   0.000000  -0.000000  -0.000000
    42  H    0.000000  -0.000005  -0.000000   0.000000   0.000000  -0.000009
              13         14         15         16         17         18
     1  O    0.317734  -0.056176  -0.016351  -0.000000   0.000000  -0.000000
     2  O   -0.000000  -0.000004  -0.000647  -0.000001   0.000000   0.000000
     3  N   -0.003117  -0.044865   0.434263  -0.000000  -0.000000   0.000000
     4  N   -0.000023   0.007310  -0.057730   0.000000   0.000000  -0.000007
     5  C    0.000056  -0.000663  -0.000008   0.000000   0.000000   0.000000
     6  C   -0.000493   0.014112  -0.000117   0.000000   0.000000   0.000000
     7  C   -0.000193   0.008629   0.000155   0.000000   0.000000   0.000000
     8  C    0.010020  -0.093954  -0.017394  -0.000000  -0.000000   0.000000
     9  C   -0.004697  -0.063139  -0.000456  -0.000000   0.000000  -0.000000
    10  C    0.467913  -0.043311   0.007216   0.000000  -0.000000   0.000000
    11  C   -0.053785  -0.011916   0.009076   0.000000  -0.000000   0.000000
    12  C    0.021929   0.352453  -0.050194   0.000000   0.000000  -0.000000
    13  C    4.678611   0.407510  -0.085547   0.000000  -0.000000   0.000000
    14  C    0.407510   5.193202   0.396349  -0.000000   0.000000  -0.000000
    15  C   -0.085547   0.396349   4.840536  -0.000000  -0.000000   0.000000
    16  C    0.000000  -0.000000  -0.000000   4.981496   0.514564  -0.023270
    17  C   -0.000000   0.000000  -0.000000   0.514564   4.838230   0.525336
    18  C    0.000000  -0.000000   0.000000  -0.023270   0.525336   4.811755
    19  C    0.000000  -0.000000   0.000000  -0.068469  -0.027505   0.526331
    20  C   -0.000000   0.000000   0.000002  -0.024232  -0.040238  -0.009411
    21  C   -0.000000   0.000000  -0.000000   0.484761  -0.017102  -0.039346
    22  C    0.000000  -0.000000   0.000000  -0.079493   0.007899  -0.000591
    23  C    0.000000  -0.000000  -0.000001   0.007620  -0.000368   0.000064
    24  C   -0.000000   0.000000   0.000031  -0.000287   0.000032  -0.000132
    25  C    0.000000   0.000002  -0.000226   0.013429  -0.000508   0.008360
    26  C    0.000021  -0.000322   0.004062  -0.000167   0.000007   0.000008
    27  H    0.000002  -0.000238   0.000012   0.000000   0.000000   0.000000
    28  H   -0.000202  -0.013357   0.002434  -0.000000  -0.000000   0.000000
    29  H   -0.000000   0.000014  -0.000000   0.000000   0.000000   0.000000
    30  H    0.000009  -0.000191   0.000002   0.000000   0.000000   0.000000
    31  H   -0.027267  -0.012473  -0.008265   0.000000  -0.000000   0.000000
    32  H   -0.028233   0.006048  -0.000167   0.000000  -0.000000   0.000000
    33  H    0.003936   0.000561   0.000008   0.000000   0.000000  -0.000000
    34  H    0.000000   0.000000  -0.000000   0.368625  -0.040656   0.004364
    35  H    0.000000  -0.000000   0.000000  -0.033464   0.371106  -0.037798
    36  H   -0.000000   0.000000   0.000000   0.004046  -0.038520   0.369843
    37  H   -0.000000   0.000000   0.000000   0.000671   0.004323  -0.040374
    38  H   -0.000000  -0.000000  -0.000000  -0.008364   0.000224   0.000011
    39  H    0.000000   0.000000   0.000000  -0.000171   0.000002  -0.000000
    40  H    0.004566  -0.034833   0.365268   0.000000  -0.000000   0.000000
    41  H    0.000013  -0.000019   0.000677   0.000001  -0.000003   0.000234
    42  H    0.000017  -0.000362  -0.003305   0.000000  -0.000000   0.000000
              19         20         21         22         23         24
     1  O   -0.000000   0.000000   0.000000  -0.000000   0.000000  -0.000000
     2  O   -0.000017   0.005902  -0.000074   0.004861  -0.067062   0.456676
     3  N    0.000006  -0.000069   0.000001  -0.000000   0.000002   0.000229
     4  N    0.000279   0.004486  -0.000111   0.000021  -0.000414  -0.004998
     5  C   -0.000000   0.000000  -0.000000  -0.000000  -0.000000   0.000000
     6  C    0.000000  -0.000000   0.000000   0.000000   0.000000   0.000000
     7  C    0.000000  -0.000000   0.000000   0.000000   0.000000   0.000000
     8  C    0.000000  -0.000000  -0.000000   0.000000  -0.000000   0.000000
     9  C   -0.000000   0.000000   0.000000  -0.000000  -0.000000   0.000000
    10  C    0.000000  -0.000000  -0.000000   0.000000  -0.000000  -0.000000
    11  C   -0.000000  -0.000000  -0.000000   0.000000   0.000000  -0.000000
    12  C   -0.000000   0.000000  -0.000000  -0.000000   0.000000  -0.000000
    13  C    0.000000  -0.000000  -0.000000   0.000000   0.000000  -0.000000
    14  C   -0.000000   0.000000   0.000000  -0.000000  -0.000000   0.000000
    15  C    0.000000   0.000002  -0.000000   0.000000  -0.000001   0.000031
    16  C   -0.068469  -0.024232   0.484761  -0.079493   0.007620  -0.000287
    17  C   -0.027505  -0.040238  -0.017102   0.007899  -0.000368   0.000032
    18  C    0.526331  -0.009411  -0.039346  -0.000591   0.000064  -0.000132
    19  C    5.025269   0.496253  -0.053017   0.013897  -0.001511   0.007966
    20  C    0.496253   4.816502   0.497410  -0.032600  -0.038456   0.018044
    21  C   -0.053017   0.497410   4.787843   0.402756  -0.007185  -0.044756
    22  C    0.013897  -0.032600   0.402756   5.014622   0.500023  -0.009078
    23  C   -0.001511  -0.038456  -0.007185   0.500023   5.046693   0.420826
    24  C    0.007966   0.018044  -0.044756  -0.009078   0.420826   4.536884
    25  C   -0.094467   0.297743  -0.009005  -0.047098  -0.064473   0.331314
    26  C   -0.020526  -0.049683   0.010035  -0.000579   0.009668  -0.082230
    27  H    0.000000  -0.000000  -0.000000   0.000000  -0.000000  -0.000000
    28  H    0.000000   0.000000  -0.000000  -0.000000   0.000000  -0.000000
    29  H   -0.000000  -0.000000   0.000000   0.000000   0.000000   0.000000
    30  H    0.000000  -0.000000   0.000000   0.000000  -0.000000  -0.000000
    31  H    0.000001  -0.000003  -0.000000   0.000000  -0.000000   0.000001
    32  H    0.000000  -0.000000  -0.000000   0.000000  -0.000000   0.000000
    33  H   -0.000000   0.000000   0.000000  -0.000000  -0.000000   0.000000
    34  H    0.000663   0.004063  -0.039855  -0.008342   0.000344   0.000006
    35  H    0.004018   0.001131   0.002566  -0.000186   0.000003  -0.000000
    36  H   -0.033168   0.002753   0.001188   0.000007  -0.000000   0.000001
    37  H    0.361396  -0.032324   0.004708  -0.000196   0.000019  -0.000163
    38  H   -0.000190   0.004699  -0.041806   0.365698  -0.033040   0.003675
    39  H    0.000013   0.000566   0.002989  -0.034195   0.355256  -0.027088
    40  H    0.000000  -0.000001  -0.000000   0.000000  -0.000000   0.000010
    41  H    0.004504  -0.011275  -0.000183   0.000030  -0.000211   0.002870
    42  H    0.000015  -0.000072   0.000005  -0.000101   0.001693  -0.009878
              25         26         27         28         29         30
     1  O   -0.000002  -0.000153  -0.000000   0.000001   0.000000   0.000000
     2  O   -0.066062  -0.023888  -0.000000   0.000000   0.000000  -0.000000
     3  N    0.005013  -0.050697  -0.000000   0.000282  -0.000000  -0.000000
     4  N   -0.032158   0.364189  -0.000000   0.000008  -0.000000   0.000000
     5  C    0.000000  -0.000000  -0.038438   0.004278   0.371256  -0.040506
     6  C   -0.000000   0.000000   0.004004   0.000652  -0.032797   0.369840
     7  C   -0.000000   0.000000   0.370357  -0.038296  -0.037718   0.004383
     8  C    0.000000   0.000000  -0.032255   0.364701   0.004024   0.000600
     9  C   -0.000000  -0.000000   0.000008  -0.000189  -0.000197  -0.008359
    10  C    0.000000  -0.000000  -0.000000   0.000023   0.000003   0.000319
    11  C    0.000000  -0.000000   0.001183   0.004338   0.002514  -0.040105
    12  C    0.000000   0.000000   0.002745  -0.033551   0.001115   0.004098
    13  C    0.000000   0.000021   0.000002  -0.000202  -0.000000   0.000009
    14  C    0.000002  -0.000322  -0.000238  -0.013357   0.000014  -0.000191
    15  C   -0.000226   0.004062   0.000012   0.002434  -0.000000   0.000002
    16  C    0.013429  -0.000167   0.000000  -0.000000   0.000000   0.000000
    17  C   -0.000508   0.000007   0.000000  -0.000000   0.000000   0.000000
    18  C    0.008360   0.000008   0.000000   0.000000   0.000000   0.000000
    19  C   -0.094467  -0.020526   0.000000   0.000000  -0.000000   0.000000
    20  C    0.297743  -0.049683  -0.000000   0.000000  -0.000000  -0.000000
    21  C   -0.009005   0.010035  -0.000000  -0.000000   0.000000   0.000000
    22  C   -0.047098  -0.000579   0.000000  -0.000000   0.000000   0.000000
    23  C   -0.064473   0.009668  -0.000000   0.000000   0.000000  -0.000000
    24  C    0.331314  -0.082230  -0.000000  -0.000000   0.000000  -0.000000
    25  C    5.310368   0.462405   0.000000   0.000000  -0.000000   0.000000
    26  C    0.462405   4.860489   0.000000  -0.000000   0.000000  -0.000000
    27  H    0.000000   0.000000   0.608175  -0.006051  -0.004931  -0.000188
    28  H    0.000000  -0.000000  -0.006051   0.623963  -0.000196   0.000018
    29  H   -0.000000   0.000000  -0.004931  -0.000196   0.609222  -0.005437
    30  H    0.000000  -0.000000  -0.000188   0.000018  -0.005437   0.616976
    31  H    0.000046   0.000220   0.000000  -0.000001  -0.000000  -0.000000
    32  H    0.000000   0.000000  -0.000000   0.000000  -0.000000  -0.000011
    33  H   -0.000000  -0.000000  -0.000000   0.000002  -0.000012   0.005717
    34  H   -0.000192   0.000002   0.000000   0.000000   0.000000   0.000000
    35  H    0.000013  -0.000000   0.000000  -0.000000   0.000000   0.000000
    36  H   -0.000228   0.000011   0.000000   0.000000   0.000000   0.000000
    37  H   -0.014802   0.004129  -0.000000   0.000000  -0.000000   0.000000
    38  H    0.000052   0.000009   0.000000   0.000000   0.000000   0.000000
    39  H    0.006892  -0.000185  -0.000000  -0.000000  -0.000000   0.000000
    40  H    0.000043   0.001096   0.000003   0.001534  -0.000000   0.000000
    41  H   -0.020694   0.369372  -0.000000  -0.000000   0.000000  -0.000000
    42  H   -0.010450  -0.024925   0.000000  -0.000018   0.000000  -0.000000
              31         32         33         34         35         36
     1  O    0.288482   0.000058  -0.000069  -0.000000  -0.000000  -0.000000
     2  O   -0.000001  -0.000000   0.000000  -0.000000   0.000000  -0.000000
     3  N    0.078476   0.000009  -0.000000   0.000000  -0.000000   0.000000
     4  N   -0.003818  -0.000000   0.000000  -0.000000  -0.000000  -0.000000
     5  C   -0.000000   0.000003   0.000231   0.000000   0.000000   0.000000
     6  C   -0.000000  -0.000175  -0.008045   0.000000   0.000000   0.000000
     7  C    0.000000  -0.000000   0.000017   0.000000   0.000000   0.000000
     8  C    0.000017   0.000013  -0.000202   0.000000  -0.000000   0.000000
     9  C   -0.000141  -0.032377   0.368826   0.000000   0.000000   0.000000
    10  C    0.004607   0.358729  -0.036295   0.000000   0.000000   0.000000
    11  C   -0.000018   0.002573  -0.039249   0.000000   0.000000  -0.000000
    12  C   -0.000137   0.000820   0.004359  -0.000000  -0.000000  -0.000000
    13  C   -0.027267  -0.028233   0.003936   0.000000   0.000000  -0.000000
    14  C   -0.012473   0.006048   0.000561   0.000000  -0.000000   0.000000
    15  C   -0.008265  -0.000167   0.000008  -0.000000   0.000000   0.000000
    16  C    0.000000   0.000000   0.000000   0.368625  -0.033464   0.004046
    17  C   -0.000000  -0.000000   0.000000  -0.040656   0.371106  -0.038520
    18  C    0.000000   0.000000  -0.000000   0.004364  -0.037798   0.369843
    19  C    0.000001   0.000000  -0.000000   0.000663   0.004018  -0.033168
    20  C   -0.000003  -0.000000   0.000000   0.004063   0.001131   0.002753
    21  C   -0.000000  -0.000000   0.000000  -0.039855   0.002566   0.001188
    22  C    0.000000   0.000000  -0.000000  -0.008342  -0.000186   0.000007
    23  C   -0.000000  -0.000000  -0.000000   0.000344   0.000003  -0.000000
    24  C    0.000001   0.000000   0.000000   0.000006  -0.000000   0.000001
    25  C    0.000046   0.000000  -0.000000  -0.000192   0.000013  -0.000228
    26  C    0.000220   0.000000  -0.000000   0.000002  -0.000000   0.000011
    27  H    0.000000  -0.000000  -0.000000   0.000000   0.000000   0.000000
    28  H   -0.000001   0.000000   0.000002   0.000000  -0.000000   0.000000
    29  H   -0.000000  -0.000000  -0.000012   0.000000   0.000000   0.000000
    30  H   -0.000000  -0.000011   0.005717   0.000000   0.000000   0.000000
    31  H    0.325263  -0.000023   0.000003   0.000000  -0.000000   0.000000
    32  H   -0.000023   0.588188  -0.005620  -0.000000  -0.000000  -0.000000
    33  H    0.000003  -0.005620   0.605297   0.000000   0.000000   0.000000
    34  H    0.000000  -0.000000   0.000000   0.619912  -0.005334  -0.000192
    35  H   -0.000000  -0.000000   0.000000  -0.005334   0.613175  -0.005090
    36  H    0.000000  -0.000000   0.000000  -0.000192  -0.005090   0.613678
    37  H   -0.000006  -0.000000   0.000000   0.000018  -0.000198  -0.005951
    38  H   -0.000000   0.000000   0.000000   0.005937  -0.000011  -0.000000
    39  H    0.000000  -0.000000   0.000000  -0.000013  -0.000000   0.000000
    40  H    0.001282   0.000002  -0.000000  -0.000000   0.000000   0.000000
    41  H    0.001458   0.000000  -0.000000   0.000000  -0.000000   0.000002
    42  H    0.000195   0.000000  -0.000000   0.000000   0.000000   0.000000
              37         38         39         40         41         42
     1  O    0.000000   0.000000  -0.000000  -0.000373  -0.000159  -0.000025
     2  O    0.000000  -0.000077   0.002272  -0.000317  -0.000403   0.093572
     3  N   -0.000023   0.000000  -0.000000  -0.051882   0.003102  -0.011468
     4  N    0.000181  -0.000000   0.000006  -0.009986  -0.049350   0.264044
     5  C    0.000000   0.000000  -0.000000  -0.000009  -0.000000  -0.000000
     6  C   -0.000000   0.000000   0.000000   0.000007   0.000000  -0.000000
     7  C    0.000000  -0.000000   0.000000   0.000442   0.000000   0.000000
     8  C    0.000000  -0.000000   0.000000   0.004068   0.000000  -0.000005
     9  C    0.000000  -0.000000   0.000000   0.000014   0.000000  -0.000000
    10  C    0.000000  -0.000000  -0.000000  -0.000178   0.000000   0.000000
    11  C   -0.000000   0.000000  -0.000000  -0.000214  -0.000000   0.000000
    12  C    0.000000   0.000000  -0.000000  -0.012904  -0.000000  -0.000009
    13  C   -0.000000  -0.000000   0.000000   0.004566   0.000013   0.000017
    14  C    0.000000  -0.000000   0.000000  -0.034833  -0.000019  -0.000362
    15  C    0.000000  -0.000000   0.000000   0.365268   0.000677  -0.003305
    16  C    0.000671  -0.008364  -0.000171   0.000000   0.000001   0.000000
    17  C    0.004323   0.000224   0.000002  -0.000000  -0.000003  -0.000000
    18  C   -0.040374   0.000011  -0.000000   0.000000   0.000234   0.000000
    19  C    0.361396  -0.000190   0.000013   0.000000   0.004504   0.000015
    20  C   -0.032324   0.004699   0.000566  -0.000001  -0.011275  -0.000072
    21  C    0.004708  -0.041806   0.002989  -0.000000  -0.000183   0.000005
    22  C   -0.000196   0.365698  -0.034195   0.000000   0.000030  -0.000101
    23  C    0.000019  -0.033040   0.355256  -0.000000  -0.000211   0.001693
    24  C   -0.000163   0.003675  -0.027088   0.000010   0.002870  -0.009878
    25  C   -0.014802   0.000052   0.006892   0.000043  -0.020694  -0.010450
    26  C    0.004129   0.000009  -0.000185   0.001096   0.369372  -0.024925
    27  H   -0.000000   0.000000  -0.000000   0.000003  -0.000000   0.000000
    28  H    0.000000   0.000000  -0.000000   0.001534  -0.000000  -0.000018
    29  H   -0.000000   0.000000  -0.000000  -0.000000   0.000000   0.000000
    30  H    0.000000   0.000000   0.000000   0.000000  -0.000000  -0.000000
    31  H   -0.000006  -0.000000   0.000000   0.001282   0.001458   0.000195
    32  H   -0.000000   0.000000  -0.000000   0.000002   0.000000   0.000000
    33  H    0.000000   0.000000   0.000000  -0.000000  -0.000000  -0.000000
    34  H    0.000018   0.005937  -0.000013  -0.000000   0.000000   0.000000
    35  H   -0.000198  -0.000011  -0.000000   0.000000  -0.000000   0.000000
    36  H   -0.005951  -0.000000   0.000000   0.000000   0.000002   0.000000
    37  H    0.634934   0.000002   0.000000  -0.000000   0.003180  -0.000007
    38  H    0.000002   0.611895  -0.006465  -0.000000  -0.000000   0.000001
    39  H    0.000000  -0.006465   0.598204   0.000000   0.000002  -0.000030
[...]
 00001895,0.00001925,0.00000005,0.27870006,-0.00001947,0.00001857,0.000
 00004,0.00092979,0.00054203,0.00000353,-0.00000452,0.00002004,-0.00000
 029,0.00004679,0.00005214,0.00000058,0.00000192,0.00000256,0.,0.000001
 25,-0.00000288,0.,-0.00000401,0.00000053,0.,0.00000162,-0.00000600,0.,
 0.00000497,-0.00000248,0.,-0.00000365,-0.00000324,-0.00000002,0.000000
 93,0.00000743,0.,-0.00000914,0.00001040,0.00000002,0.00002175,-0.00002
 465,-0.00000003,0.00002020,0.00002215,0.00000007,-0.00003457,-0.000004
 89,-0.00000003,-0.00229239,0.00137910,0.00000419,0.00038796,0.00006383
 ,0.00000022,0.00005131,0.00013864,0.00000014,-0.00171312,-0.00024952,-
 0.00000049,0.00251196,-0.00541605,-0.00001131,-0.02758004,-0.01209944,
 -0.00002971,-0.12533264,-0.13773885,-0.00016068,0.01520620,0.01281349,
 0.00000969,0.00212020,-0.00212120,-0.00001967,0.00090674,0.00042297,0.
 00000229,-0.00026541,0.00006295,0.00000071,0.00000011,-0.00000041,0.,-
 0.00000039,0.00000104,0.,0.00000046,-0.00000006,0.,0.00000023,0.000000
 10,0.,0.00000607,-0.00001118,-0.00000003,0.00000084,0.00000071,0.,0.00
 000034,-0.00000017,0.,0.00138089,-0.00007738,-0.00000013,0.00001555,-0
 .00002885,-0.00000009,0.00008480,0.00001741,-0.00000002,0.00004693,-0.
 00052081,-0.00000061,0.13373872,0.14200575,-0.00000002,0.00000003,-0.0
 0001341,0.00000120,0.00000320,-0.00182394,-0.00000004,-0.00000027,0.00
 022577,0.00000004,0.00000055,-0.00035102,0.,0.,-0.00000073,0.,0.,-0.00
 000041,0.,0.,-0.00000026,0.,0.,-0.00000157,0.,0.,-0.00000183,0.,-0.000
 00001,0.00000871,0.,0.,0.00000275,0.,0.,-0.00000369,0.00000002,-0.0000
 0002,-0.00000155,0.00000001,0.00000005,-0.00002495,-0.00000002,-0.0000
 0001,0.00000880,-0.00000260,0.00000509,-0.00196896,0.00000056,0.000000
 03,-0.00002781,0.00000014,0.00000014,0.00004759,-0.00000238,-0.0000000
 4,-0.00017005,0.00000306,-0.00001172,0.00303624,-0.00003903,-0.0000230
 8,0.00467049,-0.00022505,-0.00016054,-0.04326681,0.00001508,0.00000241
 ,0.00832955,0.00000008,-0.00001914,0.01221512,0.00000145,0.00000208,-0
 .00106356,-0.00000014,0.00000074,-0.00048128,0.,0.,0.00000085,0.,0.,0.
 00000086,0.,0.,0.00000037,0.,0.,0.00000046,0.00000001,-0.00000002,0.00
 001330,0.,0.,0.00000074,0.,0.,-0.00000084,0.00000196,-0.00000051,0.000
 23446,0.00000002,-0.00000010,0.00003737,0.00000011,-0.00000004,0.00004
 278,0.00000009,-0.00000062,-0.00007600,0.00024407,0.00019163,0.0268375
 6,0.00000121,0.00000057,0.,0.00293669,0.00317754,0.00000570,-0.0000230
 4,0.00020434,0.00000029,0.00020711,0.00021236,0.00000035,-0.00000366,0
 .00000119,0.,0.00000262,0.00000185,0.,0.00000464,0.00000018,0.,-0.0000
 1118,0.00000459,0.,-0.00000613,-0.00000280,0.,-0.00000204,0.00000762,0
 .00000001,-0.00000389,-0.00000522,0.,0.00001779,-0.00002018,-0.0000000
 2,-0.00000133,0.00001159,0.00000002,-0.00003265,-0.00000583,-0.0000000
 2,0.00002145,-0.00002161,-0.00000003,0.00070786,0.00104064,0.00000152,
 -0.00026327,0.00031047,0.00000056,-0.00028793,-0.00005866,-0.00000019,
 0.00031897,-0.00025197,-0.00000012,-0.00102829,0.00045832,0.00000049,-
 0.00463288,0.00069314,-0.00000237,0.00328791,0.02984503,0.00004180,-0.
 05876530,0.01625578,0.00001781,0.00526862,-0.02964058,-0.00004133,-0.0
 0478633,-0.00111960,-0.00000327,0.00062325,-0.00160899,-0.00000213,-0.
 00000256,0.00000198,0.,0.00000187,-0.00000285,0.,-0.00000016,0.0000002
 2,0.,-0.00000008,0.00000042,0.,0.00001628,-0.00000054,0.,-0.00000021,-
 0.00000037,0.,-0.00000031,0.00000066,0.,-0.00004284,-0.00002668,-0.000
 00010,-0.00001228,0.00014006,0.00000021,0.00001712,0.00000696,0.,0.000
 01410,0.00007623,0.00000010,0.00104881,-0.00021687,0.00000138,0.056024
 86,0.00001749,-0.00003219,-0.00000003,0.00040986,0.00303286,0.00000799
 ,0.00001601,0.00023748,0.00000036,-0.00024901,0.00030673,0.00000043,-0
 .00000951,-0.00000667,0.,0.00000148,0.00001073,0.00000002,0.00001644,0
 .00000084,0.,-0.00001575,0.00002621,0.00000004,-0.00002156,0.00000125,
 0.,0.00000083,0.00002084,0.00000003,-0.00001180,-0.00002885,-0.0000000
 4,0.00004747,-0.00005843,-0.00000007,-0.00003011,0.00005916,0.00000007
 ,-0.00009554,-0.00005323,-0.00000010,0.00008592,-0.00001380,0.,-0.0001
 8210,-0.00060345,-0.00000149,0.00032843,0.00004722,0.00000127,-0.00008
 707,0.00008566,-0.00000017,0.00000911,-0.00011881,0.00000083,-0.000498
 16,0.00059984,0.00000122,0.00192053,0.00176761,-0.00001164,-0.00153684
 ,-0.00880914,-0.00001809,0.01505137,-0.34962381,-0.00043681,0.00581426
 ,-0.01420151,-0.00002408,-0.00310625,-0.00028023,-0.00000505,0.0010350
 1,-0.00089389,-0.00000107,-0.00000136,0.00000362,0.,0.00000237,-0.0000
 0614,-0.00000001,-0.00000289,0.00000141,0.,-0.00000189,-0.00000125,0.,
 0.00002482,0.00001806,0.00000002,-0.00000062,-0.00000264,0.,-0.0000029
 3,0.00000111,0.,0.00003257,0.00000935,-0.00000029,0.00000034,-0.000052
 86,0.,0.00000442,-0.00001660,-0.00000009,-0.00000666,0.00001154,-0.000
 00002,0.00031271,0.00084293,0.00001036,-0.01885542,0.36808865,0.000000
 03,-0.00000004,-0.00000652,0.00000181,0.00000861,-0.00259089,0.0000000
 2,0.00000041,-0.00001847,-0.00000029,0.00000053,-0.00003944,-0.0000000
 1,0.,-0.00000114,0.,0.00000002,-0.00000082,0.00000002,0.,-0.00000235,-
 0.00000002,0.00000004,-0.00000405,-0.00000003,0.,-0.00000110,0.,0.0000
 0003,-0.00000160,-0.00000002,-0.00000004,0.00000008,0.00000007,-0.0000
 0009,0.00000067,-0.00000004,0.00000008,0.00000199,-0.00000014,-0.00000
 008,0.00000198,0.00000013,-0.00000002,-0.00000109,-0.00000019,-0.00000
 122,0.00042818,0.00000058,0.00000127,-0.00080826,-0.00000023,-0.000000
 16,0.00019324,0.00000024,0.00000077,-0.00070965,-0.00000085,0.00000144
 ,-0.00035021,-0.00000065,-0.00001192,0.01036062,-0.00000228,-0.0000110
 9,0.00382672,0.00001612,-0.00043654,-0.03627451,0.00000848,-0.00003199
 ,0.00386620,-0.00000606,-0.00000460,0.00281871,0.00000159,-0.00000166,
 0.00003024,0.,0.,0.00000230,0.,-0.00000002,0.00000480,0.,0.,0.00000107
 ,0.,0.,0.00000067,0.00000004,0.00000002,0.00000687,0.,0.,0.00000104,0.
 ,0.,0.00000091,-0.00000001,-0.00000030,0.00022114,0.00000001,0.0000000
 4,-0.00005759,0.,-0.00000009,0.00005106,-0.00000001,0.,0.00002791,0.00
 000212,0.00001024,-0.00648066,-0.00001968,0.00047701,0.02551621,0.0010
 7279,0.00070914,0.00000144,0.00025333,0.00001809,0.,-0.00402523,0.0367
 2416,0.00004483,0.00478790,0.00438787,0.00000928,0.00010545,0.00012599
 ,0.00000016,0.00032645,-0.00007098,0.,0.00022396,0.00062581,0.00000098
 ,-0.00253797,-0.00066477,-0.00000145,0.00016544,-0.00006056,-0.0000000
 6,0.00059004,-0.00147618,-0.00000176,-0.00036345,0.00008638,0.00000009
 ,0.00149274,0.00000727,0.00000059,-0.00580965,-0.00056515,-0.00000289,
 0.00557393,-0.02532377,-0.00003560,-0.06375345,-0.01786288,-0.00002817
 ,-0.00002359,-0.00000909,-0.00000001,0.00002249,-0.00000514,0.,-0.0000
 2679,-0.00000419,-0.00000001,0.00005868,-0.00004708,-0.00000005,-0.000
 15214,0.00010203,0.00000007,0.00005429,0.00002642,0.00000005,0.0000011
 9,0.00004659,0.00000006,0.00012521,-0.00005167,0.,-0.00039850,0.000015
 44,0.,0.00039491,0.00000113,0.00000004,-0.00095959,0.00010000,0.000000
 07,-0.00005541,-0.00000150,0.,-0.00281476,0.00294526,0.00000315,0.0000
 8104,0.00004218,0.00000007,0.00001273,0.00001098,0.00000001,-0.0018334
 2,-0.00087248,-0.00000201,-0.00041483,-0.00020939,-0.00000036,-0.00002
 188,0.00005219,0.00000004,0.00000372,0.00000385,0.,0.00000454,-0.00000
 357,0.,0.00000337,-0.00000787,-0.00000001,-0.00000273,-0.00000511,-0.0
 0000001,0.00001202,-0.00000326,0.,-0.00000593,0.00000326,0.,0.06843582
 ,-0.00005550,-0.00000133,0.00000127,-0.00006474,0.00034070,-0.00000002
 ,0.00836306,-0.02274457,-0.00006680,-0.00452307,0.00465323,0.00001849,
 0.00008739,0.00003294,-0.00000016,0.00015161,-0.00007271,0.00000006,0.
 00029487,0.00052735,0.00000115,0.00181370,-0.00098302,-0.00000070,-0.0
 0002829,-0.00012583,-0.00000024,0.00017467,-0.00047184,0.00000048,-0.0
 0027063,-0.00004704,0.00000019,0.00092288,-0.00138419,-0.00000020,-0.0
 0265785,0.00072324,-0.00000461,0.00048172,-0.01038104,-0.00002260,-0.0
 1399126,-0.32557963,-0.00039012,0.00001353,0.00002813,0.00000007,-0.00
 002526,-0.00000725,-0.00000002,0.00003386,0.00000400,0.00000002,-0.000
 07276,0.00003312,0.00000004,0.00016414,-0.00005575,-0.00000029,-0.0000
 2921,-0.00004717,-0.00000006,-0.00000422,-0.00001862,-0.00000006,-0.00
 008200,0.00005361,0.00000031,0.00010144,0.00005252,0.00000050,-0.00035
 766,-0.00021799,-0.00000068,0.00058677,0.00040894,0.00000159,-0.000015
 31,0.00000876,0.00000009,0.00338837,0.00015241,-0.00000123,0.00003869,
 0.00003271,0.00000002,-0.00001790,0.00000759,-0.00000002,0.00098474,0.
 00092407,-0.00000089,-0.00016990,-0.00009411,0.00000001,-0.00003276,0.
 00002794,-0.00000016,-0.00000106,-0.00000258,0.,-0.00000253,0.00000273
 ,0.,-0.00000439,0.00000725,0.,0.00000417,0.00000780,0.,-0.00000815,0.0
 0000360,-0.00000004,0.00000359,-0.00000217,0.,0.00294176,0.35474439,0.
 00000036,0.00000144,-0.00091119,-0.00000011,0.,0.00034171,0.00000502,-
 0.00006050,0.02616744,-0.00000323,0.00002048,-0.00923477,0.00000011,-0
 .00000015,0.00016138,0.00000031,0.,-0.00008972,0.00000052,0.00000122,-
 0.00024487,0.00000202,-0.00000126,-0.00019362,-0.00000001,-0.00000025,
 0.00004294,0.00000055,0.00000011,-0.00078409,-0.00000041,0.00000027,-0
 .00022261,0.00000187,-0.00000040,-0.00109579,-0.00000582,-0.00000415,0
 .00358565,0.00000064,-0.00002834,0.00579871,-0.00002273,-0.00039099,-0
 .04987254,0.00000002,0.00000007,-0.00002176,-0.00000003,-0.00000001,0.
 00000072,0.00000004,0.00000001,-0.00000451,-0.00000009,0.00000005,-0.0
 0000975,0.00000016,-0.00000030,0.00017339,-0.00000003,-0.00000004,-0.0
 0001167,-0.00000001,-0.00000005,0.00002563,-0.00000005,0.00000032,-0.0
 0017946,0.00000012,0.00000049,-0.00028959,-0.00000046,-0.00000060,0.00
 020630,0.00000075,0.00000148,-0.00062871,-0.00000002,0.00000009,-0.000
 05779,0.00000378,-0.00000133,0.00156677,0.00000007,0.00000002,0.000027
 85,-0.00000003,-0.00000002,0.00002142,0.00000060,-0.00000130,0.0017146
 2,-0.00000030,0.,-0.00012903,-0.00000008,-0.00000014,0.00013650,0.,0.,
 -0.00000023,0.,0.,0.00000134,0.,0.,0.00000385,0.,0.,0.00001291,-0.0000
 0002,-0.00000004,0.00003006,0.,0.,0.00000460,0.00001398,0.00046464,0.0
 2419782,0.00049929,0.00006781,0.00000021,0.00083053,0.00053495,0.00000
 103,0.00423306,0.00127678,0.00000385,-0.00082190,0.03830372,0.00005154
 ,0.00002590,-0.00000360,0.,-0.00002532,-0.00001202,-0.00000002,-0.0000
 2908,-0.00000051,0.,0.00005847,-0.00007273,-0.00000009,0.00001143,0.00
 004650,0.00000007,0.00013619,-0.00008135,-0.00000008,0.00005826,0.0000
 3040,0.00000006,-0.00014313,0.00017159,0.00000019,-0.00045465,0.000089
 68,0.00000004,0.00039917,-0.00003777,0.00000002,-0.00122133,0.00002919
 ,-0.00000015,0.00034440,-0.00010422,-0.00000010,0.00018181,0.00016835,
 0.00000026,0.00013712,0.00064443,0.00000101,-0.00204128,-0.00117131,-0
 .00000206,0.00110812,0.00049235,0.00000173,-0.00025994,0.00026235,0.00
 000040,0.00038153,-0.00036942,-0.00000045,0.00026328,-0.00160160,-0.00
 000173,-0.00529195,-0.00051660,-0.00000352,0.00824109,-0.02426306,-0.0
 0003412,-0.06206723,-0.01835205,-0.00002902,0.00000360,-0.00001131,-0.
 00000002,-0.00000313,0.00001416,0.00000002,0.00000841,-0.00000544,0.,0
 .00000781,0.00000465,0.,-0.00089531,-0.00045640,-0.00000089,-0.0000095
 0,0.00000260,0.,0.00001502,-0.00000404,0.,0.00002873,0.00001443,0.0000
 0002,0.00008472,0.00004607,0.00000007,-0.00005110,-0.00001538,-0.00000
 002,-0.00242873,0.00242555,0.00000253,-0.00001992,0.00005891,0.,-0.000
 40584,-0.00023629,-0.00000042,0.00006441,-0.00042978,-0.00000064,0.064
 13694,-0.00001959,0.00007174,0.00000012,-0.00040968,0.00038912,0.00000
 105,-0.00324837,0.00153449,0.00000846,0.00306382,-0.01958862,-0.000039
 77,-0.00000520,-0.00000178,0.,0.00000349,0.00000583,0.00000002,0.00000
 797,-0.00000184,0.,-0.00002237,0.00001127,0.00000003,0.00001810,-0.000
 00795,0.,-0.00004176,0.00000865,0.00000004,-0.00000275,-0.00000818,0.,
 0.00005617,-0.00000517,-0.00000009,0.00005906,0.00003632,0.00000018,-0
 .00012787,-0.00014894,-0.00000032,0.00032724,0.00061715,0.00000144,0.0
 0017333,-0.00022906,-0.00000046,0.00018186,0.00016336,0.00000013,-0.00
 000901,0.00041532,0.00000105,0.00143665,-0.00046641,-0.00000010,0.0008
 0887,-0.00098427,0.00000378,-0.00023601,0.00024920,0.00000084,0.000165
 11,-0.00038518,-0.00000059,-0.00002421,-0.00074365,0.00000186,-0.00279
 626,0.00070725,-0.00000981,0.00041606,-0.00951745,-0.00002523,-0.00874
 450,-0.34398519,-0.00041822,-0.00000108,0.00000073,0.,-0.00000180,0.00
 000120,0.,0.00000052,0.00000004,0.,0.00000072,-0.00000006,0.,0.0002114
 3,0.00003554,-0.00000019,0.00000046,0.00000101,-0.00000001,-0.00000064
 ,0.00000073,0.,-0.00000860,0.00000925,-0.00000002,0.00002515,0.0000218
 0,-0.00000006,-0.00000325,-0.00000812,0.00000009,0.00256280,0.00030009
 ,-0.00000114,-0.00002787,0.00002939,-0.00000041,-0.00019998,-0.0001139
 8,-0.00000021,-0.00034006,-0.00001816,-0.00000045,0.00340867,0.3693335
 6,0.00000009,0.00000014,-0.00001928,-0.00000029,0.00000126,-0.00042618
 ,-0.00000250,0.00000946,-0.00500654,0.00000206,-0.00003190,0.00922492,
 0.,0.,-0.00000222,0.,0.00000002,-0.00000748,0.,0.,-0.00000016,-0.00000
 002,0.00000002,-0.00001316,0.00000003,0.,-0.00000146,-0.00000002,0.000
 00003,-0.00002835,0.,0.,-0.00000406,0.00000003,-0.00000007,0.00007118,
 0.,0.00000019,-0.00008256,-0.00000010,-0.00000030,0.00005853,0.0000002
 7,0.00000138,-0.00035821,0.00000029,-0.00000052,0.00012373,0.00000027,
 0.00000013,0.00009867,0.00000009,0.00000119,-0.00033210,0.00000160,-0.
 00000067,-0.00017028,0.00000218,0.00000371,-0.00354971,-0.00000030,0.0
 0000095,-0.00038590,0.00000030,-0.00000070,0.00005797,0.00000049,0.000
 00152,-0.00207553,-0.00000671,-0.00000930,0.00725065,0.00000050,-0.000
 03073,0.00851781,-0.00001551,-0.00042035,-0.04747688,0.,0.,0.00000382,
 0.,0.,0.00000704,0.,0.,0.00000081,0.,0.,0.,0.00000005,-0.00000034,0.00
 020747,0.,-0.00000001,0.00000948,0.,-0.00000001,0.00000774,-0.00000001
 ,-0.00000002,0.00002375,0.00000004,-0.00000006,0.00006947,0.,0.0000000
 9,-0.00007232,0.00000272,-0.00000118,0.00151942,-0.00000011,-0.0000003
 9,0.00031385,-0.00000037,-0.00000021,0.00000160,-0.00000052,-0.0000004
 7,0.00024770,0.00001318,0.00048216,0.02643579,-0.00039584,-0.00065096,
 -0.00000101,0.02199276,0.00472486,0.00001392,-0.00343729,-0.02003280,-
 0.00002883,-0.07860479,0.02145700,0.00001790,-0.00001306,-0.00001827,-
 0.00000003,0.00004606,0.00004098,0.00000007,0.00009544,0.00010866,0.00
 000018,-0.00015485,-0.00011814,-0.00000018,-0.00009201,-0.00003160,-0.
 00000006,-0.00009937,0.00025584,0.00000039,-0.00005292,-0.00014271,-0.
 00000021,0.00014947,-0.00033388,-0.00000043,0.00061025,0.00014222,0.00
 000033,-0.00134778,0.00095533,0.00000093,0.00440165,-0.00704485,-0.000
 00852,-0.00121557,0.00136119,0.00000162,-0.00083169,-0.00147088,-0.000
 00224,0.00147742,-0.00038322,-0.00000027,-0.00024176,0.00190396,0.0000
 0266,0.00284513,-0.00261897,-0.00000287,0.00017649,-0.00328437,-0.0000
 0461,-0.00193594,0.00426056,0.00000551,0.00678634,-0.00021428,0.000000
 75,-0.02856037,0.01491574,0.00001448,-0.00909768,-0.01211959,-0.000018
 28,0.02368379,0.03620387,0.00005541,-0.00001012,0.00000311,0.,0.000002
 65,0.00013606,0.00000016,0.00001635,0.00000721,0.00000001,0.00000896,0
 .00000281,0.,-0.00019464,0.00088945,0.00000114,0.00003413,0.00002320,0
 .00000004,0.00000264,0.00001383,0.,-0.00002102,0.00002193,0.00000002,-
 0.00001149,-0.00005264,-0.00000007,0.00005548,-0.00001632,-0.00000002,
 -0.00017918,-0.00029681,-0.00000042,0.00019273,-0.00006796,0.00000001,
 -0.00020304,-0.00018292,-0.00000030,-0.00066710,0.00229323,0.00000318,
 -0.00508995,0.00334340,0.00000227,0.06987971,0.00193076,0.00122317,0.0
 0000210,0.03846743,-0.01552832,0.00000179,-0.00628125,0.00664834,0.000
 00836,0.00818321,-0.32057789,-0.00041516,0.00005128,-0.00003963,-0.000
 00005,-0.00006061,0.00001038,0.00000002,-0.00003135,-0.00000097,0.0000
 0002,0.00016483,-0.00011280,0.,0.00010055,0.00008153,0.00000014,0.0001
 1541,-0.00013320,0.00000018,0.00013564,-0.00001362,0.00000001,-0.00016
 083,0.00042362,0.00000062,-0.00078967,0.00052190,0.00000049,0.00012242
 ,-0.00079585,-0.00000179,-0.00115523,0.00343694,0.00000704,-0.00178850
 ,0.00210523,0.00000243,-0.00136555,-0.00232033,-0.00000349,0.00257830,
 -0.00029599,-0.00000020,-0.00079216,0.00275005,0.00000391,0.00522299,-
 0.00470715,-0.00000435,-0.00012935,-0.00523298,-0.00000761,-0.00289545
 ,0.00695914,0.00000889,0.01116654,-0.00154815,-0.00000264,-0.02641127,
 0.03130462,0.00003749,-0.01481301,-0.01841979,-0.00002434,0.03530827,-
 0.00973783,-0.00001018,0.00002861,-0.00003733,-0.00000006,-0.00001013,
 0.00010816,-0.00000004,0.00001984,-0.00001163,-0.00000002,0.00002091,0
 .00000436,0.,-0.00108204,-0.00182156,-0.00000321,0.00000577,0.00000237
 ,0.,0.00002895,-0.00000695,-0.00000007,-0.00006023,0.00003300,0.000000
 02,-0.00000404,-0.00005459,-0.00000001,0.00005576,-0.00000337,-0.00000
 004,-0.00006607,-0.00007206,0.00000014,0.00032904,-0.00014966,0.000000
 28,-0.00041716,-0.00025345,-0.00000042,-0.00139111,-0.00052201,-0.0000
 0036,-0.00034824,0.00227098,-0.00000499,-0.04398327,0.32451330,0.00000
 262,0.00000153,0.00002913,0.00006129,-0.00000573,-0.01069912,-0.000009
 51,0.00000533,-0.00030281,-0.00000074,-0.00041225,-0.02357462,0.000000
 07,-0.00000007,0.00000416,-0.00000007,0.00000004,-0.00001054,-0.000000
 02,0.00000005,-0.00002264,0.00000022,-0.00000007,-0.00008338,0.0000001
 2,0.00000012,-0.00000564,0.00000019,0.00000021,-0.00024140,0.00000018,
 -0.00000005,0.00000045,-0.00000018,0.00000058,-0.00004401,-0.00000098,
 0.00000070,0.00004707,-0.00000024,-0.00000160,0.00049625,-0.00000025,0
 .00000573,-0.00175994,-0.00000280,0.00000314,0.00008838,-0.00000209,-0
 .00000351,-0.00005422,0.00000389,-0.00000086,0.00025748,-0.00000113,0.
 00000451,-0.00015756,0.00000814,-0.00000609,-0.00078214,-0.00000018,-0
 .00000831,0.00016399,-0.00000453,0.00001048,0.00016981,0.00001672,-0.0
 0000519,0.00211056,-0.00004354,0.00004669,0.00041487,-0.00002205,-0.00
 002373,-0.00343807,0.00005416,-0.00000997,0.00310896,0.00000004,-0.000
 00006,0.00000661,-0.00000004,-0.00000001,0.00013854,0.00000003,-0.0000
 0003,0.00000823,0.00000003,0.,0.00000531,-0.00000163,-0.00000278,0.000
 29528,0.00000001,0.,0.00000632,0.00000003,-0.00000007,0.00004670,-0.00
 000009,0.00000004,0.00001034,0.,-0.00000002,-0.00004659,0.00000008,-0.
 00000005,0.00003245,-0.00000009,0.00000009,-0.00018348,0.00000057,0.00
 000019,-0.00029837,-0.00000063,-0.00000037,-0.00002047,-0.00000199,0.0
 0000046,-0.00048760,-0.00000291,-0.00000415,0.00576099,-0.00005267,0.0
 0040509,0.02901072\\0.,0.00000013,0.,-0.00000009,0.00000006,0.,0.00000
 003,-0.00000005,-0.00000003,-0.00000007,0.00000003,0.,0.,-0.00000008,0
 .,0.00000005,0.00000005,0.,-0.00000015,0.00000003,0.,0.00000002,0.0000
 0011,0.,0.,0.00000001,0.,-0.00000001,0.00000003,0.,-0.00000018,0.,0.,-
 0.00000005,-0.00000011,0.,0.00000011,-0.00000017,0.,0.00000002,-0.0000
 0005,0.,0.,0.00000006,0.00000002,-0.00000008,0.00000017,0.,0.00000006,
 -0.00000008,0.,-0.00000013,-0.00000004,0.,-0.00000008,0.00000022,0.,0.
 00000012,-0.00000004,0.,-0.00000025,-0.00000002,0.,-0.00000008,-0.0000
 0006,0.,0.00000007,-0.00000008,0.00000004,0.00000021,-0.00000014,0.,0.
 00000006,-0.00000005,-0.00000003,0.00000020,0.00000001,0.,0.00000002,0
 .,0.,0.00000009,0.00000003,0.,0.00000003,0.,0.,0.00000005,0.00000003,0
 .,-0.00000009,-0.00000006,0.,0.,0.00000002,0.,0.00000002,0.00000002,0.
 ,0.00000004,-0.00000001,0.,0.00000005,-0.00000004,0.,0.00000002,-0.000
 00004,0.,0.00000004,0.,0.,-0.00000002,-0.00000001,0.,0.,0.,0.,-0.00000
 002,0.00000007,0.00000001,-0.00000002,0.,0.00000001,-0.00000003,0.0000
 0003,0.\\\@


    WHAT WE HAVE LEARNED
 IS LIKE A HANDFUL OF EARTH;
  WHAT WE HAVE YET TO LEARN
   IS LIKE THE WHOLE WORLD.

         -- AVVAYIAR
 Job cpu time:       0 days  2 hours 16 minutes  5.3 seconds.
 Elapsed time:       0 days  2 hours 16 minutes 24.7 seconds.
 File lengths (MBytes):  RWF=    999 Int=      0 D2E=      0 Chk=     20 Scr=      1
 Normal termination of Gaussian 16 at Thu Aug 19 20:10:25 2021.
