 Entering Gaussian System, Link 0=g16
 Initial command:
 /opt/export//g16/l1.exe "/tmp/Gau-36390.inp" -scrdir="/tmp/"
 Entering Link 1 = /opt/export//g16/l1.exe PID=     36569.
  
 Copyright (c) 1988,1990,1992,1993,1995,1998,2003,2009,2016,
            Gaussian, Inc.  All Rights Reserved.
  
 This is part of the Gaussian(R) 16 program.  It is based on
 the Gaussian(R) 09 system (copyright 2009, Gaussian, Inc.),
 the Gaussian(R) 03 system (copyright 2003, Gaussian, Inc.),
 the Gaussian(R) 98 system (copyright 1998, Gaussian, Inc.),
 the Gaussian(R) 94 system (copyright 1995, Gaussian, Inc.),
 the Gaussian 92(TM) system (copyright 1992, Gaussian, Inc.),
 the Gaussian 90(TM) system (copyright 1990, Gaussian, Inc.),
 the Gaussian 88(TM) system (copyright 1988, Gaussian, Inc.),
 the Gaussian 86(TM) system (copyright 1986, Carnegie Mellon
 University), and the Gaussian 82(TM) system (copyright 1983,
 Carnegie Mellon University). Gaussian is a federally registered
 trademark of Gaussian, Inc.
  
 This software contains proprietary and confidential information,
 including trade secrets, belonging to Gaussian, Inc.
  
 This software is provided under written license and may be
 used, copied, transmitted, or stored only in accord with that
 written license.
  
 The following legend is applicable only to US Government
 contracts under FAR:
  
                    RESTRICTED RIGHTS LEGEND
  
 Use, reproduction and disclosure by the US Government is
 subject to restrictions as set forth in subparagraphs (a)
 and (c) of the Commercial Computer Software - Restricted
 Rights clause in FAR 52.227-19.
  
 Gaussian, Inc.
 340 Quinnipiac St., Bldg. 40, Wallingford CT 06492
  
  
 ---------------------------------------------------------------
 Warning -- This program may not be used in any manner that
 competes with the business of Gaussian, Inc. or will provide
 assistance to any competitor of Gaussian, Inc.  The licensee
 of this program is prohibited from giving any competitor of
 Gaussian, Inc. access to this program.  By using this program,
 the user acknowledges that Gaussian, Inc. is engaged in the
 business of creating and licensing software in the field of
 computational chemistry and represents and warrants to the
 licensee that it is not a competitor of Gaussian, Inc. and that
 it will not use this program in any manner prohibited above.
 ---------------------------------------------------------------
  

 Cite this work as:
 Gaussian 16, Revision A.03,
 M. J. Frisch, G. W. Trucks, H. B. Schlegel, G. E. Scuseria, 
 M. A. Robb, J. R. Cheeseman, G. Scalmani, V. Barone, 
 G. A. Petersson, H. Nakatsuji, X. Li, M. Caricato, A. V. Marenich, 
 J. Bloino, B. G. Janesko, R. Gomperts, B. Mennucci, H. P. Hratchian, 
 J. V. Ortiz, A. F. Izmaylov, J. L. Sonnenberg, D. Williams-Young, 
 F. Ding, F. Lipparini, F. Egidi, J. Goings, B. Peng, A. Petrone, 
 T. Henderson, D. Ranasinghe, V. G. Zakrzewski, J. Gao, N. Rega, 
 G. Zheng, W. Liang, M. Hada, M. Ehara, K. Toyota, R. Fukuda, 
 J. Hasegawa, M. Ishida, T. Nakajima, Y. Honda, O. Kitao, H. Nakai, 
 T. Vreven, K. Throssell, J. A. Montgomery, Jr., J. E. Peralta, 
 F. Ogliaro, M. J. Bearpark, J. J. Heyd, E. N. Brothers, K. N. Kudin, 
 V. N. Staroverov, T. A. Keith, R. Kobayashi, J. Normand, 
 K. Raghavachari, A. P. Rendell, J. C. Burant, S. S. Iyengar, 
 J. Tomasi, M. Cossi, J. M. Millam, M. Klene, C. Adamo, R. Cammi, 
 J. W. Ochterski, R. L. Martin, K. Morokuma, O. Farkas, 
 J. B. Foresman, and D. J. Fox, Gaussian, Inc., Wallingford CT, 2016.
 
 ******************************************
 Gaussian 16:  EM64L-G16RevA.03 25-Dec-2016
                16-Aug-2021 
 ******************************************
 %chk=PY101_CAM-B3LYP.chk
 ----------------------------------------------------------------
 #n CAM-B3LYP/6-31G(d,p) Opt=ReadFC Freq Geom=AllCheck Guess=Read
 ----------------------------------------------------------------
 1/10=3,18=20,19=15,26=3,29=7,38=1/1,3;
 2/9=110,12=2,40=1/2;
 3/5=1,6=6,7=101,11=2,14=-4,25=1,30=1,71=1,74=-40,116=-2/1,2,3;
 4/5=1/1;
 5/5=2,38=6/2;
 6/7=2,8=2,9=2,10=2,28=1/1;
 7//1,2,3,16;
 1/18=20,19=15,26=3/3(2);
 2/9=110/2;
 99//99;
 2/9=110/2;
 3/5=1,6=6,7=101,11=2,14=-2,25=1,30=1,71=1,74=-40/1,2,3;
 4/5=5,16=3,69=1/1;
 5/5=2,38=5/2;
 7//1,2,3,16;
 1/18=20,19=15,26=3/3(-5);
 2/9=110/2;
 6/7=2,8=2,9=2,10=2,19=2,28=1/1;
 99/9=1/99;
 Structure from the checkpoint file:  "PY101_CAM-B3LYP.chk"
 -----
 PY101
 -----
 Charge =  0 Multiplicity = 1
 Redundant internal coordinates found in file.  (old form).
 O,0,2.4125860685,-1.0957207661,-1.0990339964
 O,0,-3.4401022696,1.2700928785,0.170256158
 N,0,0.0159078918,-0.3477400142,-0.5409829359
 N,0,-1.0436361978,0.522573836,-0.3872134332
 C,0,-0.1623768592,-6.7017414945,0.6030148541
 C,0,1.0897392187,-6.3393819375,0.1817498122
 C,0,-1.1591029651,-5.7159191013,0.7192711547
 C,0,-0.8919460672,-4.4036082072,0.4170171128
 C,0,2.6957747808,-4.6294500121,-0.5726147841
 C,0,3.0064226071,-3.3434381673,-0.8827376001
 C,0,1.3920262454,-4.9962345619,-0.1358598843
 C,0,0.3913799257,-3.9945086024,-0.0212832744
 C,0,2.0235590001,-2.3268690058,-0.775842655
 C,0,0.7240343998,-2.6294724974,-0.3513912113
 C,0,-0.2579997218,-1.5759141181,-0.2513382287
 C,0,-2.1180850517,6.5140932493,-1.1099287486
 C,0,-0.865863085,6.8767704962,-1.5306000874
 C,0,0.1311734994,5.8912026526,-1.6463688367
 C,0,-0.1358040813,4.5788165386,-1.3442878283
 C,0,-1.41925847,4.1693738745,-0.9066740056
 C,0,-2.4201894637,5.1708651433,-0.7924791689
 C,0,-3.7240241919,4.8037783406,-0.3562275534
 C,0,-4.0344807841,3.5176988924,-0.046175762
 C,0,-3.0513371014,2.5013764703,-0.1527521067
 C,0,-1.7517711515,2.8042501631,-0.5767786974
 C,0,-0.7696879902,1.7507416806,-0.676825483
 H,0,-2.1538401438,-5.9939710982,1.0523132125
 H,0,-1.6911641937,-3.6805307208,0.5218690706
 H,0,-0.3864965328,-7.7349160984,0.8449047024
 H,0,1.875831008,-7.0825027389,0.0841767295
 H,0,1.6354998032,-0.4858779154,-0.9813326867
 H,0,3.9951559938,-3.0513246836,-1.2163417545
 H,0,3.4503659118,-5.4061512299,-0.655373101
 H,0,-2.9044045093,7.2570184209,-1.0127009616
 H,0,-0.6418921889,7.9100012781,-1.7723873503
 H,0,1.1260234661,6.1695229069,-1.978849343
 H,0,0.6636763057,3.8559649885,-1.448683885
 H,0,-2.6628200471,0.6605550151,0.0525228483
 H,0,-4.4788353077,5.5802987401,-0.2737830061
 H,0,-5.0232613376,3.225346987,0.2870788536
 H,0,-1.2688343267,-1.8102372683,0.0784976833
 H,0,0.2411679132,1.9851076863,-1.0065638223
 Recover connectivity data from disk.

 GradGradGradGradGradGradGradGradGradGradGradGradGradGradGradGradGradGrad
 Berny optimization.
 Initialization pass.
 Force constant matrix read from checkpoint file:
 "PY101_CAM-B3LYP.chk"
                           ----------------------------
                           !    Initial Parameters    !
                           ! (Angstroms and Degrees)  !
 --------------------------                            --------------------------
 ! Name  Definition              Value          Derivative Info.                !
 --------------------------------------------------------------------------------
 ! R1    R(1,13)                 1.331          D2E/DX2 =    0.5011             !
 ! R2    R(1,31)                 0.9948         D2E/DX2 =    0.4816             !
 ! R3    R(2,24)                 1.331          D2E/DX2 =    0.5354             !
 ! R4    R(2,38)                 0.9948         D2E/DX2 =    0.4988             !
 ! R5    R(3,4)                  1.3798         D2E/DX2 =    0.4894             !
 ! R6    R(3,15)                 1.2913         D2E/DX2 =    0.6902             !
 ! R7    R(4,26)                 1.2912         D2E/DX2 =    0.6926             !
 ! R8    R(5,6)                  1.3699         D2E/DX2 =    0.4717             !
 ! R9    R(5,7)                  1.4067         D2E/DX2 =    0.4776             !
 ! R10   R(5,29)                 1.0845         D2E/DX2 =    0.3518             !
 ! R11   R(6,11)                 1.4129         D2E/DX2 =    0.4486             !
 ! R12   R(6,30)                 1.0861         D2E/DX2 =    0.3496             !
 ! R13   R(7,8)                  1.3729         D2E/DX2 =    0.4606             !
 ! R14   R(7,27)                 1.0852         D2E/DX2 =    0.3513             !
 ! R15   R(8,12)                 1.4165         D2E/DX2 =    0.4272             !
 ! R16   R(8,28)                 1.0829         D2E/DX2 =    0.3544             !
 ! R17   R(9,10)                 1.3589         D2E/DX2 =    0.4725             !
 ! R18   R(9,11)                 1.423          D2E/DX2 =    0.4476             !
 ! R19   R(9,33)                 1.0861         D2E/DX2 =    0.3499             !
 ! R20   R(10,13)                1.418          D2E/DX2 =    0.4674             !
 ! R21   R(10,32)                1.0836         D2E/DX2 =    0.352              !
 ! R22   R(11,12)                1.4205         D2E/DX2 =    0.4111             !
 ! R23   R(12,14)                1.4432         D2E/DX2 =    0.4138             !
 ! R24   R(13,14)                1.4002         D2E/DX2 =    0.511              !
 ! R25   R(14,15)                1.4437         D2E/DX2 =    0.3569             !
 ! R26   R(15,41)                1.0888         D2E/DX2 =    0.3409             !
 ! R27   R(16,17)                1.3699         D2E/DX2 =    0.4718             !
 ! R28   R(16,21)                1.4129         D2E/DX2 =    0.4486             !
 ! R29   R(16,34)                1.0861         D2E/DX2 =    0.3496             !
 ! R30   R(17,18)                1.4067         D2E/DX2 =    0.4773             !
 ! R31   R(17,35)                1.0845         D2E/DX2 =    0.3518             !
 ! R32   R(18,19)                1.3729         D2E/DX2 =    0.4603             !
 ! R33   R(18,36)                1.0852         D2E/DX2 =    0.3513             !
 ! R34   R(19,20)                1.4165         D2E/DX2 =    0.428              !
 ! R35   R(19,37)                1.0829         D2E/DX2 =    0.3548             !
 ! R36   R(20,21)                1.4205         D2E/DX2 =    0.4113             !
 ! R37   R(20,25)                1.4432         D2E/DX2 =    0.4154             !
 ! R38   R(21,22)                1.423          D2E/DX2 =    0.4479             !
 ! R39   R(22,23)                1.3589         D2E/DX2 =    0.473              !
 ! R40   R(22,39)                1.0861         D2E/DX2 =    0.3499             !
 ! R41   R(23,24)                1.418          D2E/DX2 =    0.4679             !
 ! R42   R(23,40)                1.0836         D2E/DX2 =    0.352              !
 ! R43   R(24,25)                1.4001         D2E/DX2 =    0.4927             !
 ! R44   R(25,26)                1.4437         D2E/DX2 =    0.3656             !
 ! R45   R(26,42)                1.0888         D2E/DX2 =    0.3417             !
 ! A1    A(13,1,31)            108.0592         D2E/DX2 =    0.1619             !
 ! A2    A(24,2,38)            108.0527         D2E/DX2 =    0.2618             !
 ! A3    A(4,3,15)             114.3347         D2E/DX2 =    0.3264             !
 ! A4    A(3,4,26)             114.3332         D2E/DX2 =    0.3305             !
 ! A5    A(6,5,7)              119.1883         D2E/DX2 =    0.2494             !
 ! A6    A(6,5,29)             120.6287         D2E/DX2 =    0.16               !
 ! A7    A(7,5,29)             120.183          D2E/DX2 =    0.1598             !
 ! A8    A(5,6,11)             121.0739         D2E/DX2 =    0.2498             !
 ! A9    A(5,6,30)             120.5426         D2E/DX2 =    0.1589             !
 ! A10   A(11,6,30)            118.3835         D2E/DX2 =    0.1598             !
 ! A11   A(5,7,8)              120.9169         D2E/DX2 =    0.251              !
 ! A12   A(5,7,27)             119.6879         D2E/DX2 =    0.1599             !
 ! A13   A(8,7,27)             119.3952         D2E/DX2 =    0.161              !
 ! A14   A(7,8,12)             121.3651         D2E/DX2 =    0.2489             !
 ! A15   A(7,8,28)             118.251          D2E/DX2 =    0.1615             !
 ! A16   A(12,8,28)            120.3839         D2E/DX2 =    0.1603             !
 ! A17   A(10,9,11)            121.5619         D2E/DX2 =    0.2505             !
 ! A18   A(10,9,33)            120.0389         D2E/DX2 =    0.1595             !
 ! A19   A(11,9,33)            118.3992         D2E/DX2 =    0.1608             !
 ! A20   A(9,10,13)            120.1849         D2E/DX2 =    0.2525             !
 ! A21   A(9,10,32)            122.2744         D2E/DX2 =    0.1599             !
 ! A22   A(13,10,32)           117.5407         D2E/DX2 =    0.1591             !
 ! A23   A(6,11,9)             120.6656         D2E/DX2 =    0.2494             !
 ! A24   A(6,11,12)            120.101          D2E/DX2 =    0.25               !
 ! A25   A(9,11,12)            119.2334         D2E/DX2 =    0.2494             !
 ! A26   A(8,12,11)            117.3547         D2E/DX2 =    0.2526             !
 ! A27   A(8,12,14)            123.5569         D2E/DX2 =    0.2643             !
 ! A28   A(11,12,14)           119.0884         D2E/DX2 =    0.2566             !
 ! A29   A(1,13,10)            116.2454         D2E/DX2 =    0.2897             !
 ! A30   A(1,13,14)            123.0104         D2E/DX2 =    0.3126             !
 ! A31   A(10,13,14)           120.7443         D2E/DX2 =    0.2538             !
 ! A32   A(12,14,13)           119.1873         D2E/DX2 =    0.2586             !
 ! A33   A(12,14,15)           121.1692         D2E/DX2 =    0.3567             !
 ! A34   A(13,14,15)           119.6436         D2E/DX2 =    0.4165             !
 ! A35   A(3,15,14)            122.2938         D2E/DX2 =    0.3225             !
 ! A36   A(3,15,41)            118.0075         D2E/DX2 =    0.1883             !
 ! A37   A(14,15,41)           119.6987         D2E/DX2 =    0.182              !
 ! A38   A(17,16,21)           121.074          D2E/DX2 =    0.2497             !
 ! A39   A(17,16,34)           120.5427         D2E/DX2 =    0.1589             !
 ! A40   A(21,16,34)           118.3833         D2E/DX2 =    0.1598             !
 ! A41   A(16,17,18)           119.1883         D2E/DX2 =    0.2494             !
 ! A42   A(16,17,35)           120.6287         D2E/DX2 =    0.1601             !
 ! A43   A(18,17,35)           120.183          D2E/DX2 =    0.1598             !
 ! A44   A(17,18,19)           120.917          D2E/DX2 =    0.2509             !
 ! A45   A(17,18,36)           119.6878         D2E/DX2 =    0.1599             !
 ! A46   A(19,18,36)           119.3951         D2E/DX2 =    0.161              !
 ! A47   A(18,19,20)           121.3651         D2E/DX2 =    0.2487             !
 ! A48   A(18,19,37)           118.2505         D2E/DX2 =    0.1617             !
 ! A49   A(20,19,37)           120.3844         D2E/DX2 =    0.1604             !
 ! A50   A(19,20,21)           117.3546         D2E/DX2 =    0.2531             !
 ! A51   A(19,20,25)           123.5583         D2E/DX2 =    0.2677             !
 ! A52   A(21,20,25)           119.0871         D2E/DX2 =    0.2576             !
 ! A53   A(16,21,20)           120.101          D2E/DX2 =    0.25               !
 ! A54   A(16,21,22)           120.6653         D2E/DX2 =    0.2495             !
 ! A55   A(20,21,22)           119.2338         D2E/DX2 =    0.2495             !
 ! A56   A(21,22,23)           121.5618         D2E/DX2 =    0.25               !
 ! A57   A(21,22,39)           118.3993         D2E/DX2 =    0.1607             !
 ! A58   A(23,22,39)           120.0388         D2E/DX2 =    0.1594             !
 ! A59   A(22,23,24)           120.1835         D2E/DX2 =    0.2525             !
 ! A60   A(22,23,40)           122.2753         D2E/DX2 =    0.1594             !
 ! A61   A(24,23,40)           117.5412         D2E/DX2 =    0.1597             !
 ! A62   A(2,24,23)            116.249          D2E/DX2 =    0.2843             !
 ! A63   A(2,24,25)            123.005          D2E/DX2 =    0.3065             !
 ! A64   A(23,24,25)           120.746          D2E/DX2 =    0.2562             !
 ! A65   A(20,25,24)           119.1878         D2E/DX2 =    0.2594             !
 ! A66   A(20,25,26)           121.1747         D2E/DX2 =    0.3581             !
 ! A67   A(24,25,26)           119.6375         D2E/DX2 =    0.412              !
 ! A68   A(4,26,25)            122.2898         D2E/DX2 =    0.3372             !
 ! A69   A(4,26,42)            118.0104         D2E/DX2 =    0.1959             !
 ! A70   A(25,26,42)           119.6998         D2E/DX2 =    0.1853             !
 ! D1    D(31,1,13,10)         179.9912         D2E/DX2 =    0.0335             !
 ! D2    D(31,1,13,14)          -0.0074         D2E/DX2 =    0.027              !
 ! D3    D(38,2,24,23)         179.9934         D2E/DX2 =    0.0337             !
 ! D4    D(38,2,24,25)          -0.0053         D2E/DX2 =    0.0272             !
 ! D5    D(15,3,4,26)          179.998          D2E/DX2 =    0.0148             !
 ! D6    D(4,3,15,14)         -179.9997         D2E/DX2 =    0.0309             !
 ! D7    D(4,3,15,41)           -0.0032         D2E/DX2 =    0.0306             !
 ! D8    D(3,4,26,25)          179.9981         D2E/DX2 =    0.0309             !
 ! D9    D(3,4,26,42)           -0.0013         D2E/DX2 =    0.0307             !
 ! D10   D(7,5,6,11)            -0.001          D2E/DX2 =    0.0219             !
 ! D11   D(7,5,6,30)           179.9986         D2E/DX2 =    0.0219             !
 ! D12   D(29,5,6,11)          179.9993         D2E/DX2 =    0.0219             !
 ! D13   D(29,5,6,30)           -0.0012         D2E/DX2 =    0.0219             !
 ! D14   D(6,5,7,8)              0.0018         D2E/DX2 =    0.0227             !
 ! D15   D(6,5,7,27)          -179.9966         D2E/DX2 =    0.0226             !
 ! D16   D(29,5,7,8)          -179.9985         D2E/DX2 =    0.0227             !
 ! D17   D(29,5,7,27)            0.0031         D2E/DX2 =    0.0227             !
 ! D18   D(5,6,11,9)           179.9968         D2E/DX2 =    0.0202             !
 ! D19   D(5,6,11,12)           -0.0021         D2E/DX2 =    0.0203             !
 ! D20   D(30,6,11,9)           -0.0028         D2E/DX2 =    0.0202             !
 ! D21   D(30,6,11,12)         179.9984         D2E/DX2 =    0.0203             !
 ! D22   D(5,7,8,12)             0.0005         D2E/DX2 =    0.0211             !
 ! D23   D(5,7,8,28)          -179.9975         D2E/DX2 =    0.021              !
 ! D24   D(27,7,8,12)          179.9989         D2E/DX2 =    0.0211             !
 ! D25   D(27,7,8,28)            0.0009         D2E/DX2 =    0.0211             !
 ! D26   D(7,8,12,11)           -0.0034         D2E/DX2 =    0.0181             !
 ! D27   D(7,8,12,14)          179.9996         D2E/DX2 =    0.0181             !
 ! D28   D(28,8,12,11)         179.9945         D2E/DX2 =    0.0179             !
 ! D29   D(28,8,12,14)          -0.0024         D2E/DX2 =    0.0181             !
 ! D30   D(11,9,10,13)          -0.003          D2E/DX2 =    0.0221             !
 ! D31   D(11,9,10,32)         179.9988         D2E/DX2 =    0.0224             !
 ! D32   D(33,9,10,13)         179.9976         D2E/DX2 =    0.0221             !
 ! D33   D(33,9,10,32)          -0.0006         D2E/DX2 =    0.0222             !
 ! D34   D(10,9,11,6)         -179.9973         D2E/DX2 =    0.0205             !
 ! D35   D(10,9,11,12)           0.0016         D2E/DX2 =    0.0206             !
 ! D36   D(33,9,11,6)            0.0021         D2E/DX2 =    0.0206             !
 ! D37   D(33,9,11,12)        -179.999          D2E/DX2 =    0.0206             !
 ! D38   D(9,10,13,1)         -179.9982         D2E/DX2 =    0.0244             !
 ! D39   D(9,10,13,14)           0.0004         D2E/DX2 =    0.0227             !
 ! D40   D(32,10,13,1)           0.0            D2E/DX2 =    0.0234             !
 ! D41   D(32,10,13,14)        179.9986         D2E/DX2 =    0.0225             !
 ! D42   D(6,11,12,8)            0.0042         D2E/DX2 =    0.018              !
 ! D43   D(6,11,12,14)        -179.9987         D2E/DX2 =    0.0181             !
 ! D44   D(9,11,12,8)         -179.9947         D2E/DX2 =    0.018              !
 ! D45   D(9,11,12,14)           0.0024         D2E/DX2 =    0.018              !
 ! D46   D(8,12,14,13)         179.992          D2E/DX2 =    0.0166             !
 ! D47   D(8,12,14,15)          -0.0152         D2E/DX2 =    0.0164             !
 ! D48   D(11,12,14,13)         -0.0049         D2E/DX2 =    0.017              !
 ! D49   D(11,12,14,15)        179.9879         D2E/DX2 =    0.0173             !
 ! D50   D(1,13,14,12)        -179.9979         D2E/DX2 =    0.0229             !
 ! D51   D(1,13,14,15)           0.0091         D2E/DX2 =    0.0246             !
 ! D52   D(10,13,14,12)          0.0036         D2E/DX2 =    0.0201             !
 ! D53   D(10,13,14,15)       -179.9894         D2E/DX2 =    0.0203             !
 ! D54   D(12,14,15,3)         179.9954         D2E/DX2 =    0.0226             !
 ! D55   D(12,14,15,41)         -0.001          D2E/DX2 =    0.0095             !
 ! D56   D(13,14,15,3)          -0.0118         D2E/DX2 =    0.018              !
 ! D57   D(13,14,15,41)        179.9919         D2E/DX2 =    0.0092             !
 ! D58   D(21,16,17,18)         -0.0007         D2E/DX2 =    0.0219             !
 ! D59   D(21,16,17,35)        179.9996         D2E/DX2 =    0.0219             !
 ! D60   D(34,16,17,18)        179.9989         D2E/DX2 =    0.0219             !
 ! D61   D(34,16,17,35)         -0.0008         D2E/DX2 =    0.0219             !
 ! D62   D(17,16,21,20)         -0.0016         D2E/DX2 =    0.0203             !
 ! D63   D(17,16,21,22)        179.9976         D2E/DX2 =    0.0203             !
 ! D64   D(34,16,21,20)        179.9988         D2E/DX2 =    0.0203             !
 ! D65   D(34,16,21,22)         -0.002          D2E/DX2 =    0.0203             !
 ! D66   D(16,17,18,19)          0.0013         D2E/DX2 =    0.0227             !
 ! D67   D(16,17,18,36)       -179.9976         D2E/DX2 =    0.0227             !
 ! D68   D(35,17,18,19)       -179.9989         D2E/DX2 =    0.0227             !
 ! D69   D(35,17,18,36)          0.0021         D2E/DX2 =    0.0227             !
 ! D70   D(17,18,19,20)          0.0003         D2E/DX2 =    0.0211             !
 ! D71   D(17,18,19,37)       -179.9983         D2E/DX2 =    0.0211             !
 ! D72   D(36,18,19,20)        179.9993         D2E/DX2 =    0.0211             !
 ! D73   D(36,18,19,37)          0.0007         D2E/DX2 =    0.0211             !
 ! D74   D(18,19,20,21)         -0.0025         D2E/DX2 =    0.0181             !
 ! D75   D(18,19,20,25)        179.9998         D2E/DX2 =    0.0182             !
 ! D76   D(37,19,20,21)        179.9961         D2E/DX2 =    0.018              !
 ! D77   D(37,19,20,25)         -0.0017         D2E/DX2 =    0.0181             !
 ! D78   D(19,20,21,16)          0.0031         D2E/DX2 =    0.018              !
 ! D79   D(19,20,21,22)       -179.9961         D2E/DX2 =    0.018              !
 ! D80   D(25,20,21,16)       -179.9991         D2E/DX2 =    0.018              !
 ! D81   D(25,20,21,22)          0.0017         D2E/DX2 =    0.018              !
 ! D82   D(19,20,25,24)        179.9942         D2E/DX2 =    0.0169             !
 ! D83   D(19,20,25,26)         -0.0107         D2E/DX2 =    0.017              !
 ! D84   D(21,20,25,24)         -0.0035         D2E/DX2 =    0.0171             !
 ! D85   D(21,20,25,26)        179.9916         D2E/DX2 =    0.0177             !
 ! D86   D(16,21,22,23)       -179.9981         D2E/DX2 =    0.0206             !
 ! D87   D(16,21,22,39)          0.0014         D2E/DX2 =    0.0206             !
 ! D88   D(20,21,22,23)          0.001          D2E/DX2 =    0.0207             !
 ! D89   D(20,21,22,39)       -179.9994         D2E/DX2 =    0.0206             !
 ! D90   D(21,22,23,24)         -0.0021         D2E/DX2 =    0.0221             !
 ! D91   D(21,22,23,40)        179.9991         D2E/DX2 =    0.0225             !
 ! D92   D(39,22,23,24)        179.9984         D2E/DX2 =    0.0222             !
 ! D93   D(39,22,23,40)         -0.0004         D2E/DX2 =    0.0222             !
 ! D94   D(22,23,24,2)        -179.9986         D2E/DX2 =    0.0245             !
 ! D95   D(22,23,24,25)          0.0002         D2E/DX2 =    0.0227             !
 ! D96   D(40,23,24,2)           0.0003         D2E/DX2 =    0.0234             !
 ! D97   D(40,23,24,25)        179.9991         D2E/DX2 =    0.0225             !
 ! D98   D(2,24,25,20)        -179.9987         D2E/DX2 =    0.0228             !
 ! D99   D(2,24,25,26)           0.0061         D2E/DX2 =    0.0249             !
 ! D100  D(23,24,25,20)          0.0026         D2E/DX2 =    0.0201             !
 ! D101  D(23,24,25,26)       -179.9927         D2E/DX2 =    0.0208             !
 ! D102  D(20,25,26,4)         179.9985         D2E/DX2 =    0.0223             !
 ! D103  D(20,25,26,42)         -0.0022         D2E/DX2 =    0.0094             !
 ! D104  D(24,25,26,4)          -0.0064         D2E/DX2 =    0.0177             !
 ! D105  D(24,25,26,42)        179.9929         D2E/DX2 =    0.0093             !
 --------------------------------------------------------------------------------
 Trust Radius=3.00D-01 FncErr=1.00D-07 GrdErr=1.00D-06 EigMax=2.50D+02 EigMin=1.00D-04
 Number of steps in this run=    230 maximum allowed number of steps=    252.
 GradGradGradGradGradGradGradGradGradGradGradGradGradGradGradGradGradGrad

                          Input orientation:                          
 ---------------------------------------------------------------------
 Center     Atomic      Atomic             Coordinates (Angstroms)
 Number     Number       Type             X           Y           Z
 ---------------------------------------------------------------------
      1          8           0        2.412586   -1.095721   -1.099034
      2          8           0       -3.440102    1.270093    0.170256
      3          7           0        0.015908   -0.347740   -0.540983
      4          7           0       -1.043636    0.522574   -0.387213
      5          6           0       -0.162377   -6.701741    0.603015
      6          6           0        1.089739   -6.339382    0.181750
      7          6           0       -1.159103   -5.715919    0.719271
      8          6           0       -0.891946   -4.403608    0.417017
      9          6           0        2.695775   -4.629450   -0.572615
     10          6           0        3.006423   -3.343438   -0.882738
     11          6           0        1.392026   -4.996235   -0.135860
     12          6           0        0.391380   -3.994509   -0.021283
     13          6           0        2.023559   -2.326869   -0.775843
     14          6           0        0.724034   -2.629472   -0.351391
     15          6           0       -0.258000   -1.575914   -0.251338
     16          6           0       -2.118085    6.514093   -1.109929
     17          6           0       -0.865863    6.876770   -1.530600
     18          6           0        0.131173    5.891203   -1.646369
     19          6           0       -0.135804    4.578817   -1.344288
     20          6           0       -1.419258    4.169374   -0.906674
     21          6           0       -2.420189    5.170865   -0.792479
     22          6           0       -3.724024    4.803778   -0.356228
     23          6           0       -4.034481    3.517699   -0.046176
     24          6           0       -3.051337    2.501376   -0.152752
     25          6           0       -1.751771    2.804250   -0.576779
     26          6           0       -0.769688    1.750742   -0.676825
     27          1           0       -2.153840   -5.993971    1.052313
     28          1           0       -1.691164   -3.680531    0.521869
     29          1           0       -0.386497   -7.734916    0.844905
     30          1           0        1.875831   -7.082503    0.084177
     31          1           0        1.635500   -0.485878   -0.981333
     32          1           0        3.995156   -3.051325   -1.216342
     33          1           0        3.450366   -5.406151   -0.655373
     34          1           0       -2.904405    7.257018   -1.012701
     35          1           0       -0.641892    7.910001   -1.772387
     36          1           0        1.126023    6.169523   -1.978849
     37          1           0        0.663676    3.855965   -1.448684
     38          1           0       -2.662820    0.660555    0.052523
     39          1           0       -4.478835    5.580299   -0.273783
     40          1           0       -5.023261    3.225347    0.287079
     41          1           0       -1.268834   -1.810237    0.078498
     42          1           0        0.241168    1.985108   -1.006564
 ---------------------------------------------------------------------
                    Distance matrix (angstroms):
                    1          2          3          4          5
     1  O    0.000000
     2  O    6.439110   0.000000
     3  N    2.571957   3.881656   0.000000
     4  N    3.882144   2.571499   1.379755   0.000000
     5  C    6.399599   8.630232   6.458626   7.344924   0.000000
     6  C    5.557546   8.855716   6.129864   7.208429   1.369877
     7  C    6.116325   7.369446   5.637928   6.336911   1.406707
     8  C    4.915329   6.224538   4.265212   4.993703   2.418322
     9  C    3.583930   8.544323   5.051309   6.368745   3.720958
    10  C    2.334879   7.996946   4.246667   5.620905   4.850459
    11  C    4.145269   7.918967   4.864805   6.037622   2.422986
    12  C    3.694562   6.514060   3.702700   4.753652   2.832932
    13  C    1.330985   6.609450   2.828917   4.204527   5.081247
    14  C    2.400536   5.728766   2.396600   3.614047   4.275511
    15  C    2.842746   4.289904   1.291252   2.244847   5.197419
    16  C    8.856431   5.557530   7.208494   6.129850  13.469122
    17  C    8.631054   6.399567   7.345095   6.458696  13.763110
    18  C    7.370313   6.116273   6.337158   5.638069  12.795630
    19  C    6.225337   4.915270   4.993924   4.265355  11.447431
    20  C    6.514695   3.694512   4.753709   3.702713  11.047174
    21  C    7.919583   4.145251   6.037617   4.864746  12.165686
    22  C    8.544813   3.583954   6.368624   5.051154  12.082320
    23  C    7.997301   2.334922   5.620685   4.246438  10.947676
    24  C    6.609767   1.330989   4.204305   2.828691   9.675467
    25  C    5.729258   2.400450   3.614002   2.396547   9.709890
    26  C    4.290394   2.842478   2.244825   1.291247   8.570373
    27  H    7.033733   7.429611   6.255104   6.765364   2.160725
    28  H    5.113642   5.262232   3.892460   4.348771   3.386959
    29  H    7.462753   9.532568   7.526818   8.374729   1.084523
    30  H    6.126145   9.901132   7.014782   8.159822   2.137396
    31  H    0.994799   5.492843   1.684063   2.923649   6.661792
    32  H    2.518467   8.710934   4.857972   6.232947   5.824146
    33  H    4.455742   9.629769   6.115236   7.444310   4.039060
    34  H    9.901823   6.126144   8.159846   7.014730  14.316991
    35  H    9.533429   7.462722   8.374924   7.526898  14.811330
    36  H    7.430551   7.033674   6.765688   6.255299  13.190733
    37  H    5.263092   5.113580   4.349099   3.892702  10.786890
    38  H    5.492753   0.994769   2.923096   1.683497   7.794785
    39  H    9.630263   4.455784   7.444176   6.115067  13.047954
    40  H    8.711186   2.518543   6.232645   4.857681  11.057807
    41  H    3.930645   3.769782   2.042845   2.389479   5.042438
    42  H    3.770293   3.930382   2.389495   2.042871   8.843921
                    6          7          8          9         10
     6  C    0.000000
     7  C    2.394771   0.000000
     8  C    2.780224   1.372913   0.000000
     9  C    2.464200   4.208262   3.728554   0.000000
    10  C    3.712477   5.054374   4.243890   1.358862   0.000000
    11  C    1.412904   2.785221   2.423512   1.423041   2.428135
    12  C    2.455068   2.432215   1.416473   2.453029   2.829213
    13  C    4.229570   4.883683   3.773053   2.407292   1.418048
    14  C    3.765821   3.770766   2.519802   2.817199   2.449770
    15  C    4.969365   4.346690   2.973960   4.260526   3.765536
    16  C   13.310537  12.403178  11.091942  12.150741  11.112296
    17  C   13.469343  12.795458  11.447307  12.082885  10.948378
    18  C   12.403551  11.915802  10.549287  10.881832   9.701999
    19  C   11.092241  10.549265   9.184656   9.664652   8.535147
    20  C   10.858807  10.021497   8.690583   9.719280   8.719494
    21  C   12.072883  11.063354   9.770821  11.057468  10.097011
    22  C   12.150381  10.881156   9.664085  11.412556  10.580797
    23  C   11.111779   9.701207   8.534470  10.580620   9.866578
    24  C    9.768286   8.477318   7.257163   9.168111   8.449331
    25  C    9.604976   8.638535   7.326674   8.662597   7.779980
    26  C    8.345341   7.606034   6.251997   7.261345   6.344453
    27  H    3.376092   1.085234   2.127259   5.293494   6.115395
    28  H    3.862460   2.113022   1.082859   4.619911   4.914659
    29  H    2.136952   2.165422   3.396495   4.599313   5.812205
    30  H    1.086135   3.388469   3.866245   2.668548   4.024148
    31  H    5.992839   6.168889   4.867440   4.296559   3.170931
    32  H    4.605152   6.116620   5.327316   2.143188   1.083612
    33  H    2.672873   4.820042   4.583752   1.086058   2.122161
    34  H   14.221181  13.203898  11.919073  13.147008  12.137728
    35  H   14.486619  13.861514  12.509236  13.031397  11.863456
    36  H   12.694180  12.400217  11.027397  11.002701   9.758780
    37  H   10.333680   9.982160   8.609376   8.769218   7.592112
    38  H    7.943395   6.585221   5.377230   7.555759   7.003355
    39  H   13.164168  11.815723  10.631151  12.482119  11.663318
    40  H   11.351824   9.750115   8.676728  11.046286  10.439982
    41  H    5.107512   3.959417   2.642388   4.908160   4.642467
    42  H    8.451585   8.015303   6.642757   7.068648   6.004612
                   11         12         13         14         15
    11  C    0.000000
    12  C    1.420520   0.000000
    13  C    2.816722   2.452425   0.000000
    14  C    2.468649   1.443244   1.400176   0.000000
    15  C    3.799278   2.514800   2.458566   1.443741   0.000000
    16  C   12.073000  10.858788   9.768697   9.605093   8.345377
    17  C   12.166002  11.047326   9.676022   9.710147   8.570524
    18  C   11.063800  10.021771   8.477950   8.638886   7.606274
    19  C    9.771191   8.690809   7.257718   7.326977   6.252214
    20  C    9.617996   8.409001   7.353318   7.150270   5.897993
    21  C   10.878146   9.617887   8.715687   8.421756   7.105415
    22  C   11.057250   9.718981   9.168256   8.662475   7.261185
    23  C   10.096637   8.719067   8.449333   7.779739   6.344194
    24  C    8.715385   7.352966   7.032408   6.373264   4.943354
    25  C    8.421724   7.150160   6.373471   5.975429   4.639300
    26  C    7.105444   5.897942   4.943576   4.639331   3.392566
    27  H    3.870452   3.410074   5.851534   4.644610   4.981259
    28  H    3.416101   2.174991   4.161205   2.774976   2.661056
    29  H    3.409607   3.917400   6.138580   5.360033   6.257121
    30  H    2.152905   3.427889   4.835029   4.620155   5.915093
    31  H    4.595369   3.844479   1.892634   2.413005   2.303565
    32  H    3.424383   3.912156   2.146176   3.409741   4.604064
    33  H    2.162103   3.428148   3.395920   3.903234   5.346582
    34  H   13.014237  11.766136  10.779231  10.552043   9.252234
    35  H   13.167611  12.076894  10.625029  10.722196   9.614757
    36  H   11.319961  10.376864   8.627947   8.957262   8.055533
    37  H    8.978610   7.983831   6.366273   6.577887   5.638123
    38  H    6.962509   5.568052   5.618989   4.739009   3.298073
    39  H   12.097483  10.745217  10.249707   9.719888   8.308269
    40  H   10.436915   9.029936   9.034079   8.229093   6.785994
    41  H    4.156526   2.745416   3.440445   2.197152   1.088800
    42  H    7.128937   6.062108   4.671541   4.685804   3.674290
                   16         17         18         19         20
    16  C    0.000000
    17  C    1.369876   0.000000
    18  C    2.394770   1.406708   0.000000
    19  C    2.780226   2.418324   1.372912   0.000000
    20  C    2.455072   2.832936   2.432218   1.416476   0.000000
    21  C    1.412906   2.422987   2.785223   2.423516   1.420524
    22  C    2.464200   3.720959   4.208266   3.728565   2.453040
    23  C    3.712482   4.850466   5.054386   4.243907   2.829227
    24  C    4.229544   5.081224   4.883665   3.773042   2.452406
    25  C    3.765816   4.275515   3.770780   2.519823   1.443246
    26  C    4.969434   5.197533   4.346836   2.974109   2.514867
    27  H   12.693630  13.190387  12.400062  11.027239  10.376455
    28  H   10.333217  10.786582   9.981996   8.609210   7.983462
    29  H   14.486340  14.811286  13.861657  12.509333  12.076703
    30  H   14.221275  14.317322  13.204380  11.919461  11.766228
    31  H    7.943899   7.795326   6.585775   5.377768   5.568527
    32  H   11.352544  11.058722   9.751107   8.677572   9.030519
    33  H   13.164592  13.048602  11.816485  10.631783  10.745561
    34  H    1.086135   2.137395   3.388469   3.866247   3.427893
    35  H    2.136950   1.084523   2.165424   3.396496   3.917404
    36  H    3.376091   2.160726   1.085234   2.127257   3.410076
    37  H    3.862460   3.386955   2.113015   1.082858   2.174998
    38  H    5.992657   6.661581   6.168655   4.867203   3.844257
    39  H    2.672874   4.039059   4.820045   4.583761   3.428158
    40  H    4.605164   5.824158   6.116633   5.327333   3.912169
    41  H    8.451512   8.843963   8.015445   6.642897   6.062090
    42  H    5.107687   5.042668   3.959675   2.642630   2.745544
                   21         22         23         24         25
    21  C    0.000000
    22  C    1.423044   0.000000
    23  C    2.428140   1.358866   0.000000
    24  C    2.816694   2.407273   1.418041   0.000000
    25  C    2.468639   2.817186   2.449758   1.400144   0.000000
    26  C    3.799312   4.260507   3.765465   2.458461   1.443737
    27  H   11.319354  11.001857   9.757835   8.627202   8.956802
    28  H    8.978095   8.768527   7.591332   6.365623   6.577468
    29  H   13.167237  13.030759  11.862679  10.624424  10.721902
    30  H   13.014198  13.146711  12.137259  10.778862  10.551978
    31  H    6.962975   7.556171   7.003701   5.619313   4.739432
    32  H   10.437467  11.046637  10.440135   9.034200   8.229457
    33  H   12.097747  12.482148  11.663154  10.249574   9.720036
    34  H    2.152904   2.668543   4.024146   4.835001   4.620145
    35  H    3.409608   4.599312   5.812210   6.138556   5.360038
    36  H    3.870454   5.293498   6.115407   5.851519   4.644627
    37  H    3.416108   4.619927   4.914685   4.161211   2.775015
    38  H    4.595193   4.296456   3.170878   1.892540   2.412770
    39  H    2.162106   1.086057   2.122163   3.395904   3.903221
    40  H    3.424393   2.143200   1.083612   2.146176   3.409724
    41  H    7.128815   7.068391   6.004269   4.671275   4.685735
    42  H    4.156646   4.908217   4.642451   3.440366   2.197161
                   26         27         28         29         30
    26  C    0.000000
    27  H    8.055208   0.000000
    28  H    5.637793   2.418149   0.000000
    29  H    9.614583   2.489460   4.271364   0.000000
    30  H    9.252248   4.284908   4.948580   2.474364   0.000000
    31  H    3.298503   6.988126   4.850991   7.744170   6.686444
    32  H    6.786358   7.184436   5.979257   6.736738   4.736379
    33  H    8.308455   5.888026   5.549684   4.732388   2.415833
    34  H    5.915142  13.431915  11.111113  15.314982  15.155054
    35  H    6.257241  14.268334  11.861915  15.864390  15.315382
    36  H    4.981427  12.957470  10.545790  14.268662  13.432590
    37  H    2.661252  10.545835   8.138005  11.862206  11.111663
    38  H    2.303129   6.748434   4.473190   8.734612   8.975260
    39  H    5.346562  11.879725   9.703975  13.974750  14.172384
    40  H    4.603961   9.685814   7.671320  11.913779  12.405257
    41  H    3.674266   4.385793   1.967978   6.038851   6.138871
    42  H    1.088800   8.581418   6.178145   9.914674   9.278114
                   31         32         33         34         35
    31  H    0.000000
    32  H    3.493526   0.000000
    33  H    5.254434   2.481268   0.000000
    34  H    8.975754  12.405940  14.172743   0.000000
    35  H    8.735163  11.914784  13.975486   2.474363   0.000000
    36  H    6.748997   9.686969  11.880673   4.284908   2.489461
    37  H    4.473752   7.672248   9.704730   4.948580   4.271358
    38  H    4.567135   7.727659   8.641590   6.686284   7.743960
    39  H    8.642003  12.132678  13.554332   2.415827   4.732384
    40  H    7.727947  11.090028  12.132326   4.736386   6.736749
    41  H    3.363380   5.561160   5.978295   9.277981   9.914730
    42  H    2.837352   6.285068   8.065544   6.139031   6.039093
                   36         37         38         39         40
    36  H    0.000000
    37  H    2.418138   0.000000
    38  H    6.987885   4.850757   0.000000
    39  H    5.888028   5.549698   5.254357   0.000000
    40  H    7.184449   5.979282   3.493545   2.481283   0.000000
    41  H    8.581643   6.178408   2.837021   8.065248   6.284611
    42  H    4.386073   1.968271   3.362923   5.978361   5.561108
                   41         42
    41  H    0.000000
    42  H    4.226359   0.000000
 Stoichiometry    C22H16N2O2
 Framework group  C1[X(C22H16N2O2)]
 Deg. of freedom   120
 Full point group                 C1      NOp   1
 Largest Abelian subgroup         C1      NOp   1
 Largest concise Abelian subgroup C1      NOp   1
                         Standard orientation:                         
 ---------------------------------------------------------------------
 Center     Atomic      Atomic             Coordinates (Angstroms)
 Number     Number       Type             X           Y           Z
 ---------------------------------------------------------------------
      1          8           0        1.899034   -2.600232    0.000244
      2          8           0       -1.898621    2.599763    0.000284
      3          7           0        0.558244   -0.405410   -0.000026
      4          7           0       -0.558284    0.405201   -0.000015
      5          6           0        6.679658    1.654236   -0.000253
      6          6           0        6.649137    0.284699    0.000079
      7          6           0        5.467162    2.367452   -0.000566
      8          6           0        4.261976    1.709868   -0.000506
      9          6           0        5.401469   -1.840297    0.000408
     10          6           0        4.232971   -2.533923    0.000407
     11          6           0        5.423035   -0.417419    0.000131
     12          6           0        4.194091    0.295023   -0.000118
     13          6           0        2.994180   -1.843809    0.000192
     14          6           0        2.954530   -0.444195   -0.000031
     15          6           0        1.680030    0.234065   -0.000016
     16          6           0       -6.649232   -0.284304    0.000051
     17          6           0       -6.679977   -1.653835   -0.000261
     18          6           0       -5.467596   -2.367250   -0.000535
     19          6           0       -4.262302   -1.709865   -0.000468
     20          6           0       -4.194183   -0.295028   -0.000114
     21          6           0       -5.423014    0.417616    0.000114
     22          6           0       -5.401226    1.840493    0.000388
     23          6           0       -4.232616    2.533937    0.000415
     24          6           0       -2.993955    1.843603    0.000212
     25          6           0       -2.954517    0.444015   -0.000023
     26          6           0       -1.680050   -0.234300   -0.000066
     27          1           0        5.481881    3.452585   -0.000886
     28          1           0        3.355163    2.301708   -0.000798
     29          1           0        7.624955    2.185841   -0.000279
     30          1           0        7.572043   -0.287957    0.000302
     31          1           0        1.107779   -1.997289    0.000223
     32          1           0        4.203076   -3.617123    0.000598
     33          1           0        6.348888   -2.371257    0.000613
     34          1           0       -7.572043    0.288503    0.000250
     35          1           0       -7.625361   -2.185285   -0.000300
     36          1           0       -5.482492   -3.452381   -0.000822
     37          1           0       -3.355594   -2.301863   -0.000717
     38          1           0       -1.107606    1.996555    0.000233
     39          1           0       -6.348560    2.371604    0.000569
     40          1           0       -4.202535    3.617132    0.000608
     41          1           0        1.648151    1.322398   -0.000055
     42          1           0       -1.648198   -1.322633   -0.000132
 ---------------------------------------------------------------------
 Rotational constants (GHZ):           0.5516580           0.0765620           0.0672313
 Standard basis: 6-31G(d,p) (6D, 7F)
 There are   470 symmetry adapted cartesian basis functions of A   symmetry.
 There are   470 symmetry adapted basis functions of A   symmetry.
   470 basis functions,   840 primitive gaussians,   470 cartesian basis functions
    89 alpha electrons       89 beta electrons
       nuclear repulsion energy      1998.0618316000 Hartrees.
 NAtoms=   42 NActive=   42 NUniq=   42 SFac= 1.00D+00 NAtFMM=   60 NAOKFM=F Big=F
 Integral buffers will be    131072 words long.
 Raffenetti 2 integral format.
 Two-electron integral symmetry is turned on.
 One-electron integrals computed using PRISM.
 NBasis=   470 RedAO= T EigKep=  2.35D-04  NBF=   470
 NBsUse=   470 1.00D-06 EigRej= -1.00D+00 NBFU=   470
 Initial guess from the checkpoint file:  "PY101_CAM-B3LYP.chk"
 B after Tr=     0.000000   -0.000000    0.000000
         Rot=    1.000000    0.000000    0.000000    0.000000 Ang=   0.00 deg.
 Requested convergence on RMS density matrix=1.00D-08 within 128 cycles.
 Requested convergence on MAX density matrix=1.00D-06.
 Requested convergence on             energy=1.00D-06.
 No special actions if energy rises.
 SCF Done:  E(RCAM-B3LYP) =  -1107.37050348     A.U. after    1 cycles
            NFock=  1  Conv=0.26D-08     -V/T= 2.0089

 **********************************************************************

            Population analysis using the SCF density.

 **********************************************************************

 Orbital symmetries:
       Occupied  (A) (A) (A) (A) (A) (A) (A) (A) (A) (A) (A) (A)
                 (A) (A) (A) (A) (A) (A) (A) (A) (A) (A) (A) (A)
                 (A) (A) (A) (A) (A) (A) (A) (A) (A) (A) (A) (A)
                 (A) (A) (A) (A) (A) (A) (A) (A) (A) (A) (A) (A)
                 (A) (A) (A) (A) (A) (A) (A) (A) (A) (A) (A) (A)
                 (A) (A) (A) (A) (A) (A) (A) (A) (A) (A) (A) (A)
                 (A) (A) (A) (A) (A) (A) (A) (A) (A) (A) (A) (A)
                 (A) (A) (A) (A) (A)
       Virtual   (A) (A) (A) (A) (A) (A) (A) (A) (A) (A) (A) (A)
                 (A) (A) (A) (A) (A) (A) (A) (A) (A) (A) (A) (A)
                 (A) (A) (A) (A) (A) (A) (A) (A) (A) (A) (A) (A)
                 (A) (A) (A) (A) (A) (A) (A) (A) (A) (A) (A) (A)
                 (A) (A) (A) (A) (A) (A) (A) (A) (A) (A) (A) (A)
                 (A) (A) (A) (A) (A) (A) (A) (A) (A) (A) (A) (A)
                 (A) (A) (A) (A) (A) (A) (A) (A) (A) (A) (A) (A)
                 (A) (A) (A) (A) (A) (A) (A) (A) (A) (A) (A) (A)
                 (A) (A) (A) (A) (A) (A) (A) (A) (A) (A) (A) (A)
                 (A) (A) (A) (A) (A) (A) (A) (A) (A) (A) (A) (A)
                 (A) (A) (A) (A) (A) (A) (A) (A) (A) (A) (A) (A)
                 (A) (A) (A) (A) (A) (A) (A) (A) (A) (A) (A) (A)
                 (A) (A) (A) (A) (A) (A) (A) (A) (A) (A) (A) (A)
                 (A) (A) (A) (A) (A) (A) (A) (A) (A) (A) (A) (A)
                 (A) (A) (A) (A) (A) (A) (A) (A) (A) (A) (A) (A)
                 (A) (A) (A) (A) (A) (A) (A) (A) (A) (A) (A) (A)
                 (A) (A) (A) (A) (A) (A) (A) (A) (A) (A) (A) (A)
                 (A) (A) (A) (A) (A) (A) (A) (A) (A) (A) (A) (A)
                 (A) (A) (A) (A) (A) (A) (A) (A) (A) (A) (A) (A)
                 (A) (A) (A) (A) (A) (A) (A) (A) (A) (A) (A) (A)
                 (A) (A) (A) (A) (A) (A) (A) (A) (A) (A) (A) (A)
                 (A) (A) (A) (A) (A) (A) (A) (A) (A) (A) (A) (A)
                 (A) (A) (A) (A) (A) (A) (A) (A) (A) (A) (A) (A)
                 (A) (A) (A) (A) (A) (A) (A) (A) (A) (A) (A) (A)
                 (A) (A) (A) (A) (A) (A) (A) (A) (A) (A) (A) (A)
                 (A) (A) (A) (A) (A) (A) (A) (A) (A) (A) (A) (A)
                 (A) (A) (A) (A) (A) (A) (A) (A) (A) (A) (A) (A)
                 (A) (A) (A) (A) (A) (A) (A) (A) (A) (A) (A) (A)
                 (A) (A) (A) (A) (A) (A) (A) (A) (A) (A) (A) (A)
                 (A) (A) (A) (A) (A) (A) (A) (A) (A) (A) (A) (A)
                 (A) (A) (A) (A) (A) (A) (A) (A) (A) (A) (A) (A)
                 (A) (A) (A) (A) (A) (A) (A) (A) (A)
 The electronic state is 1-A.
 Alpha  occ. eigenvalues --  -19.23915 -19.23911 -14.44782 -14.44764 -10.33761
 Alpha  occ. eigenvalues --  -10.33760 -10.32046 -10.32045 -10.28363 -10.28363
 Alpha  occ. eigenvalues --  -10.27759 -10.27759 -10.27348 -10.27347 -10.27162
 Alpha  occ. eigenvalues --  -10.27162 -10.26768 -10.26768 -10.26731 -10.26731
 Alpha  occ. eigenvalues --  -10.26559 -10.26559 -10.26529 -10.26529 -10.26268
 Alpha  occ. eigenvalues --  -10.26268  -1.14386  -1.14210  -1.09411  -0.97078
 Alpha  occ. eigenvalues --   -0.96399  -0.94840  -0.90666  -0.90448  -0.87387
 Alpha  occ. eigenvalues --   -0.85760  -0.82385  -0.82302  -0.81363  -0.80081
 Alpha  occ. eigenvalues --   -0.75126  -0.71995  -0.70570  -0.70020  -0.69020
 Alpha  occ. eigenvalues --   -0.68666  -0.66109  -0.65344  -0.63549  -0.60462
 Alpha  occ. eigenvalues --   -0.59923  -0.59710  -0.57998  -0.57580  -0.56328
 Alpha  occ. eigenvalues --   -0.54201  -0.52526  -0.52183  -0.51660  -0.51566
 Alpha  occ. eigenvalues --   -0.51192  -0.50397  -0.49588  -0.49506  -0.48889
 Alpha  occ. eigenvalues --   -0.48277  -0.48059  -0.47215  -0.46246  -0.45545
 Alpha  occ. eigenvalues --   -0.45422  -0.44599  -0.44559  -0.44060  -0.41954
 Alpha  occ. eigenvalues --   -0.40898  -0.40829  -0.39903  -0.39150  -0.38029
 Alpha  occ. eigenvalues --   -0.37327  -0.37310  -0.35001  -0.32146  -0.31873
 Alpha  occ. eigenvalues --   -0.28686  -0.28531  -0.26961  -0.24385
 Alpha virt. eigenvalues --   -0.03732  -0.00096   0.02771   0.04186   0.04188
 Alpha virt. eigenvalues --    0.05247   0.10884   0.11716   0.13079   0.14370
 Alpha virt. eigenvalues --    0.14807   0.15079   0.17142   0.17152   0.17169
 Alpha virt. eigenvalues --    0.18891   0.19437   0.19996   0.20852   0.21719
 Alpha virt. eigenvalues --    0.22249   0.22351   0.22991   0.24085   0.25326
 Alpha virt. eigenvalues --    0.27518   0.27723   0.27973   0.28266   0.29630
 Alpha virt. eigenvalues --    0.30034   0.31060   0.32363   0.33598   0.35115
 Alpha virt. eigenvalues --    0.35132   0.36427   0.36595   0.37869   0.37875
 Alpha virt. eigenvalues --    0.38587   0.39833   0.40170   0.43731   0.44197
 Alpha virt. eigenvalues --    0.44443   0.48091   0.48820   0.50022   0.52858
 Alpha virt. eigenvalues --    0.53290   0.54737   0.55280   0.55721   0.56033
 Alpha virt. eigenvalues --    0.56454   0.57533   0.58526   0.58668   0.59186
 Alpha virt. eigenvalues --    0.59731   0.59762   0.59815   0.60201   0.60521
 Alpha virt. eigenvalues --    0.61331   0.61599   0.61862   0.62949   0.63393
 Alpha virt. eigenvalues --    0.64298   0.64884   0.64886   0.65206   0.65383
 Alpha virt. eigenvalues --    0.66918   0.66941   0.67066   0.67101   0.67261
 Alpha virt. eigenvalues --    0.67415   0.67950   0.68125   0.69005   0.69334
 Alpha virt. eigenvalues --    0.69374   0.69598   0.70861   0.71238   0.72333
 Alpha virt. eigenvalues --    0.72585   0.72759   0.74839   0.74975   0.75125
 Alpha virt. eigenvalues --    0.75887   0.77048   0.77237   0.78287   0.82307
 Alpha virt. eigenvalues --    0.83229   0.84998   0.85209   0.86123   0.86701
 Alpha virt. eigenvalues --    0.87221   0.88215   0.88252   0.88608   0.88929
 Alpha virt. eigenvalues --    0.88944   0.91395   0.91517   0.92937   0.93247
 Alpha virt. eigenvalues --    0.93352   0.93471   0.93764   0.95563   0.96098
 Alpha virt. eigenvalues --    0.97525   0.98060   0.99701   1.00044   1.01384
 Alpha virt. eigenvalues --    1.02220   1.02701   1.03534   1.03782   1.04241
 Alpha virt. eigenvalues --    1.04933   1.05726   1.06918   1.07589   1.08843
 Alpha virt. eigenvalues --    1.09910   1.10490   1.12408   1.13859   1.16117
 Alpha virt. eigenvalues --    1.17757   1.18002   1.19776   1.20699   1.22199
 Alpha virt. eigenvalues --    1.23141   1.24409   1.24961   1.26243   1.26976
 Alpha virt. eigenvalues --    1.27794   1.28668   1.29008   1.29294   1.30563
 Alpha virt. eigenvalues --    1.30956   1.33660   1.35443   1.35924   1.36556
 Alpha virt. eigenvalues --    1.36720   1.38294   1.39312   1.39626   1.40595
 Alpha virt. eigenvalues --    1.41065   1.42264   1.42441   1.44153   1.44981
 Alpha virt. eigenvalues --    1.46434   1.46510   1.46630   1.47011   1.47975
 Alpha virt. eigenvalues --    1.48537   1.48989   1.49015   1.50278   1.50314
 Alpha virt. eigenvalues --    1.52080   1.52741   1.53644   1.54487   1.55238
 Alpha virt. eigenvalues --    1.58430   1.60447   1.61794   1.65656   1.65676
 Alpha virt. eigenvalues --    1.67891   1.68024   1.71776   1.72253   1.78206
 Alpha virt. eigenvalues --    1.78395   1.79681   1.79740   1.80636   1.81592
 Alpha virt. eigenvalues --    1.82539   1.83257   1.83358   1.84003   1.87502
 Alpha virt. eigenvalues --    1.87554   1.90105   1.90132   1.90372   1.91428
 Alpha virt. eigenvalues --    1.93165   1.93248   1.94478   1.95347   1.96698
 Alpha virt. eigenvalues --    1.96914   1.97799   1.98306   1.99074   1.99358
 Alpha virt. eigenvalues --    1.99646   1.99673   1.99974   2.00831   2.01268
 Alpha virt. eigenvalues --    2.01893   2.03902   2.05693   2.05809   2.06035
 Alpha virt. eigenvalues --    2.07292   2.07328   2.08586   2.08777   2.10188
 Alpha virt. eigenvalues --    2.11469   2.12422   2.13246   2.14856   2.15679
 Alpha virt. eigenvalues --    2.16514   2.21509   2.24189   2.24893   2.27747
 Alpha virt. eigenvalues --    2.28451   2.31054   2.31341   2.32123   2.32640
 Alpha virt. eigenvalues --    2.32903   2.33189   2.33436   2.34902   2.35697
 Alpha virt. eigenvalues --    2.36629   2.36753   2.37441   2.37724   2.37981
 Alpha virt. eigenvalues --    2.41642   2.43423   2.44304   2.44449   2.44645
 Alpha virt. eigenvalues --    2.45839   2.45858   2.47514   2.48228   2.48366
 Alpha virt. eigenvalues --    2.50294   2.50705   2.51134   2.52276   2.52938
 Alpha virt. eigenvalues --    2.53760   2.54535   2.55032   2.56947   2.57214
 Alpha virt. eigenvalues --    2.58484   2.58715   2.59796   2.60679   2.61525
 Alpha virt. eigenvalues --    2.62755   2.63667   2.63725   2.64949   2.65481
 Alpha virt. eigenvalues --    2.66021   2.66690   2.67260   2.68454   2.68909
 Alpha virt. eigenvalues --    2.69571   2.69676   2.69811   2.70270   2.70701
 Alpha virt. eigenvalues --    2.72761   2.73921   2.76528   2.78066   2.78702
 Alpha virt. eigenvalues --    2.80231   2.81417   2.81605   2.82371   2.83351
 Alpha virt. eigenvalues --    2.84171   2.84205   2.86433   2.86837   2.87952
 Alpha virt. eigenvalues --    2.89561   2.90947   2.93217   2.96560   3.00473
 Alpha virt. eigenvalues --    3.03614   3.03791   3.04997   3.09078   3.11533
 Alpha virt. eigenvalues --    3.12253   3.14877   3.19756   3.19807   3.21852
 Alpha virt. eigenvalues --    3.23172   3.26331   3.27098   3.27508   3.27912
 Alpha virt. eigenvalues --    3.31795   3.31799   3.35130   3.35487   3.35681
 Alpha virt. eigenvalues --    3.36236   3.41857   3.41935   3.47262   3.47831
 Alpha virt. eigenvalues --    3.55869   3.55877   3.58448   3.62559   3.66786
 Alpha virt. eigenvalues --    3.67034   3.81822   3.83869   3.96101   3.96374
 Alpha virt. eigenvalues --    3.96807   4.14350   4.14828   4.17310   4.17752
 Alpha virt. eigenvalues --    4.20048   4.20182   4.21301   4.21684   4.22378
 Alpha virt. eigenvalues --    4.25683   4.26530   4.33482   4.35926   4.44257
 Alpha virt. eigenvalues --    4.45676   4.45769   4.46843   4.56820   4.60444
 Alpha virt. eigenvalues --    4.60558   4.62064   4.75501   4.76680   5.00938
 Alpha virt. eigenvalues --    5.01662
          Condensed to atoms (all electrons):
               1          2          3          4          5          6
     1  O    8.133999   0.000000  -0.045139   0.001228  -0.000000  -0.000000
     2  O    0.000000   8.134042   0.001230  -0.045209   0.000000  -0.000000
     3  N   -0.045139   0.001230   6.876228   0.185486   0.000000   0.000000
     4  N    0.001228  -0.045209   0.185486   6.876292   0.000000  -0.000000
     5  C   -0.000000   0.000000   0.000000   0.000000   4.841697   0.526568
     6  C   -0.000000  -0.000000   0.000000  -0.000000   0.526568   4.977896
     7  C    0.000000  -0.000000  -0.000009   0.000000   0.506829  -0.022945
     8  C   -0.000028  -0.000000   0.000209   0.000007  -0.026434  -0.068191
     9  C    0.003273  -0.000000   0.000002   0.000000   0.008300  -0.083723
    10  C   -0.058066  -0.000000   0.000042  -0.000001  -0.000401   0.007839
    11  C    0.000129   0.000000  -0.000086   0.000001  -0.015356   0.471935
    12  C    0.004993   0.000000   0.004344  -0.000081  -0.039846  -0.024141
    13  C    0.320179  -0.000000  -0.001056  -0.000068   0.000056  -0.000501
    14  C   -0.053851  -0.000001  -0.048445   0.006873  -0.000668   0.014159
    15  C   -0.016385  -0.000178   0.443529  -0.059018  -0.000007  -0.000123
    16  C   -0.000000  -0.000000  -0.000000   0.000000   0.000000   0.000000
    17  C    0.000000  -0.000000   0.000000   0.000000   0.000000   0.000000
    18  C   -0.000000   0.000000   0.000000  -0.000009   0.000000   0.000000
    19  C   -0.000000  -0.000028   0.000007   0.000208  -0.000000   0.000000
    20  C    0.000000   0.004995  -0.000081   0.004344   0.000000  -0.000000
    21  C    0.000000   0.000129   0.000001  -0.000086  -0.000000   0.000000
    22  C   -0.000000   0.003273   0.000000   0.000002  -0.000000  -0.000000
    23  C   -0.000000  -0.058059  -0.000001   0.000041  -0.000000   0.000000
    24  C   -0.000000   0.320197  -0.000068  -0.001054  -0.000000   0.000000
    25  C   -0.000001  -0.053852   0.006874  -0.048438   0.000000  -0.000000
    26  C   -0.000178  -0.016391  -0.059017   0.443525  -0.000000   0.000000
    27  H   -0.000000  -0.000000  -0.000000  -0.000000  -0.038685   0.004024
    28  H    0.000001   0.000000   0.000258  -0.000027   0.004302   0.000637
    29  H    0.000000  -0.000000  -0.000000  -0.000000   0.371114  -0.032887
    30  H    0.000000   0.000000  -0.000000   0.000000  -0.040577   0.369537
    31  H    0.275576  -0.000002   0.090513  -0.004313  -0.000000   0.000000
    32  H    0.000107  -0.000000   0.000009  -0.000000   0.000003  -0.000174
    33  H   -0.000069   0.000000  -0.000000   0.000000   0.000229  -0.008059
    34  H    0.000000   0.000000   0.000000  -0.000000   0.000000   0.000000
    35  H   -0.000000   0.000000  -0.000000  -0.000000   0.000000   0.000000
    36  H   -0.000000  -0.000000  -0.000000  -0.000000   0.000000   0.000000
    37  H    0.000000   0.000001  -0.000028   0.000258   0.000000  -0.000000
    38  H   -0.000002   0.275582  -0.004316   0.090545  -0.000000   0.000000
    39  H    0.000000  -0.000069   0.000000  -0.000000   0.000000   0.000000
    40  H   -0.000000   0.000107  -0.000000   0.000009   0.000000   0.000000
    41  H   -0.000487  -0.000399  -0.050890   0.001328  -0.000009   0.000007
    42  H   -0.000399  -0.000487   0.001333  -0.050888  -0.000000   0.000000
               7          8          9         10         11         12
     1  O    0.000000  -0.000028   0.003273  -0.058066   0.000129   0.004993
     2  O   -0.000000  -0.000000  -0.000000  -0.000000   0.000000   0.000000
     3  N   -0.000009   0.000209   0.000002   0.000042  -0.000086   0.004344
     4  N    0.000000   0.000007   0.000000  -0.000001   0.000001  -0.000081
     5  C    0.506829  -0.026434   0.008300  -0.000401  -0.015356  -0.039846
     6  C   -0.022945  -0.068191  -0.083723   0.007839   0.471935  -0.024141
     7  C    4.819725   0.535612  -0.000738   0.000069  -0.038180  -0.008389
     8  C    0.535612   5.021470   0.014661  -0.001325  -0.053175   0.473770
     9  C   -0.000738   0.014661   5.000194   0.513818   0.431079  -0.025936
    10  C    0.000069  -0.001325   0.513818   4.933548  -0.006720  -0.042862
    11  C   -0.038180  -0.053175   0.431079  -0.006720   4.763617   0.491977
    12  C   -0.008389   0.473770  -0.025936  -0.042862   0.491977   4.828794
    13  C   -0.000196   0.009827  -0.005121   0.468138  -0.052429   0.018695
    14  C    0.008742  -0.094074  -0.062580  -0.044880  -0.013123   0.346281
    15  C    0.000176  -0.017131  -0.000364   0.006770   0.008645  -0.047811
    16  C    0.000000   0.000000  -0.000000   0.000000   0.000000  -0.000000
    17  C    0.000000  -0.000000  -0.000000  -0.000000  -0.000000   0.000000
    18  C    0.000000   0.000000  -0.000000   0.000000   0.000000  -0.000000
    19  C    0.000000   0.000000   0.000000   0.000000  -0.000000  -0.000000
    20  C   -0.000000  -0.000000   0.000000  -0.000000  -0.000000   0.000000
    21  C    0.000000  -0.000000   0.000000   0.000000  -0.000000  -0.000000
    22  C   -0.000000   0.000000  -0.000000  -0.000000   0.000000   0.000000
    23  C    0.000000   0.000000  -0.000000   0.000000   0.000000  -0.000000
    24  C    0.000000   0.000000   0.000000   0.000000  -0.000000  -0.000000
    25  C   -0.000000   0.000000  -0.000000  -0.000000   0.000000   0.000000
    26  C    0.000000   0.000000  -0.000000  -0.000000   0.000000   0.000001
    27  H    0.370183  -0.032465   0.000008  -0.000000   0.001180   0.002743
    28  H   -0.039441   0.365083  -0.000189   0.000022   0.004486  -0.032677
    29  H   -0.037818   0.003995  -0.000197   0.000003   0.002526   0.001113
    30  H    0.004383   0.000604  -0.008350   0.000312  -0.040107   0.004091
    31  H    0.000000   0.000020  -0.000124   0.004600  -0.000010  -0.000361
    32  H   -0.000000   0.000013  -0.032813   0.358653   0.002599   0.000795
    33  H    0.000017  -0.000203   0.368531  -0.036276  -0.039413   0.004352
    34  H    0.000000   0.000000   0.000000  -0.000000   0.000000  -0.000000
    35  H    0.000000  -0.000000   0.000000   0.000000   0.000000  -0.000000
    36  H    0.000000   0.000000   0.000000   0.000000  -0.000000  -0.000000
    37  H    0.000000   0.000000   0.000000  -0.000000  -0.000000   0.000000
    38  H    0.000000   0.000002   0.000000   0.000000  -0.000000  -0.000005
    39  H   -0.000000  -0.000000  -0.000000  -0.000000   0.000000   0.000000
    40  H    0.000000   0.000000   0.000000  -0.000000  -0.000000  -0.000000
    41  H    0.000442   0.003300   0.000012  -0.000169  -0.000210  -0.013240
    42  H    0.000000   0.000000   0.000000   0.000000  -0.000000  -0.000002
              13         14         15         16         17         18
     1  O    0.320179  -0.053851  -0.016385  -0.000000   0.000000  -0.000000
     2  O   -0.000000  -0.000001  -0.000178  -0.000000  -0.000000   0.000000
     3  N   -0.001056  -0.048445   0.443529  -0.000000   0.000000   0.000000
     4  N   -0.000068   0.006873  -0.059018   0.000000   0.000000  -0.000009
     5  C    0.000056  -0.000668  -0.000007   0.000000   0.000000   0.000000
     6  C   -0.000501   0.014159  -0.000123   0.000000   0.000000   0.000000
     7  C   -0.000196   0.008742   0.000176   0.000000   0.000000   0.000000
     8  C    0.009827  -0.094074  -0.017131   0.000000  -0.000000   0.000000
     9  C   -0.005121  -0.062580  -0.000364  -0.000000  -0.000000  -0.000000
    10  C    0.468138  -0.044880   0.006770   0.000000  -0.000000   0.000000
    11  C   -0.052429  -0.013123   0.008645   0.000000  -0.000000   0.000000
    12  C    0.018695   0.346281  -0.047811  -0.000000   0.000000  -0.000000
    13  C    4.664100   0.407622  -0.082463   0.000000  -0.000000   0.000000
    14  C    0.407622   5.224647   0.387791  -0.000000   0.000000  -0.000000
    15  C   -0.082463   0.387791   4.821182   0.000000  -0.000000   0.000000
    16  C    0.000000  -0.000000   0.000000   4.977890   0.526568  -0.022944
    17  C   -0.000000   0.000000  -0.000000   0.526568   4.841698   0.506830
    18  C    0.000000  -0.000000   0.000000  -0.022944   0.506830   4.819719
    19  C    0.000000   0.000000   0.000000  -0.068191  -0.026435   0.535610
    20  C   -0.000000   0.000000   0.000001  -0.024139  -0.039847  -0.008383
    21  C   -0.000000   0.000000   0.000000   0.471937  -0.015357  -0.038181
    22  C    0.000000  -0.000000  -0.000000  -0.083722   0.008300  -0.000739
    23  C    0.000000  -0.000000  -0.000000   0.007839  -0.000401   0.000069
    24  C    0.000000   0.000000   0.000029  -0.000502   0.000056  -0.000196
    25  C    0.000000   0.000004  -0.000462   0.014159  -0.000668   0.008742
    26  C    0.000029  -0.000462   0.001559  -0.000123  -0.000007   0.000176
    27  H    0.000002  -0.000237   0.000011   0.000000   0.000000   0.000000
    28  H   -0.000184  -0.013847   0.003297  -0.000000   0.000000   0.000000
    29  H   -0.000000   0.000014  -0.000000   0.000000   0.000000   0.000000
    30  H    0.000010  -0.000192   0.000002   0.000000   0.000000   0.000000
    31  H   -0.025045  -0.013613  -0.009849   0.000000  -0.000000   0.000000
    32  H   -0.028104   0.006097  -0.000164   0.000000   0.000000   0.000000
    33  H    0.003913   0.000547   0.000008   0.000000   0.000000  -0.000000
    34  H    0.000000   0.000000  -0.000000   0.369537  -0.040577   0.004383
    35  H    0.000000  -0.000000   0.000000  -0.032887   0.371114  -0.037819
    36  H   -0.000000   0.000000   0.000000   0.004024  -0.038685   0.370183
    37  H   -0.000000   0.000000   0.000000   0.000637   0.004303  -0.039443
    38  H    0.000004   0.000016  -0.000403   0.000000  -0.000000   0.000000
    39  H   -0.000000  -0.000000  -0.000000  -0.008059   0.000229   0.000017
    40  H    0.000000   0.000000   0.000000  -0.000174   0.000003  -0.000000
    41  H    0.004662  -0.038642   0.360336   0.000000  -0.000000   0.000000
    42  H    0.000044  -0.000048   0.001599   0.000007  -0.000009   0.000442
              19         20         21         22         23         24
     1  O   -0.000000   0.000000   0.000000  -0.000000  -0.000000  -0.000000
     2  O   -0.000028   0.004995   0.000129   0.003273  -0.058059   0.320197
     3  N    0.000007  -0.000081   0.000001   0.000000  -0.000001  -0.000068
     4  N    0.000208   0.004344  -0.000086   0.000002   0.000041  -0.001054
     5  C   -0.000000   0.000000  -0.000000  -0.000000  -0.000000  -0.000000
     6  C    0.000000  -0.000000   0.000000  -0.000000   0.000000   0.000000
     7  C    0.000000  -0.000000   0.000000  -0.000000   0.000000   0.000000
     8  C    0.000000  -0.000000  -0.000000   0.000000   0.000000   0.000000
     9  C    0.000000   0.000000   0.000000  -0.000000  -0.000000   0.000000
    10  C    0.000000  -0.000000   0.000000  -0.000000   0.000000   0.000000
    11  C   -0.000000  -0.000000  -0.000000   0.000000   0.000000  -0.000000
    12  C   -0.000000   0.000000  -0.000000   0.000000  -0.000000  -0.000000
    13  C    0.000000  -0.000000  -0.000000   0.000000   0.000000   0.000000
    14  C    0.000000   0.000000   0.000000  -0.000000  -0.000000   0.000000
    15  C    0.000000   0.000001   0.000000  -0.000000  -0.000000   0.000029
    16  C   -0.068191  -0.024139   0.471937  -0.083722   0.007839  -0.000502
    17  C   -0.026435  -0.039847  -0.015357   0.008300  -0.000401   0.000056
    18  C    0.535610  -0.008383  -0.038181  -0.000739   0.000069  -0.000196
    19  C    5.021478   0.473768  -0.053175   0.014661  -0.001325   0.009827
    20  C    0.473768   4.828806   0.491973  -0.025934  -0.042863   0.018703
    21  C   -0.053175   0.491973   4.763626   0.431075  -0.006723  -0.052428
    22  C    0.014661  -0.025934   0.431075   5.000207   0.513813  -0.005117
    23  C   -0.001325  -0.042863  -0.006723   0.513813   4.933560   0.468132
    24  C    0.009827   0.018703  -0.052428  -0.005117   0.468132   4.664061
    25  C   -0.094074   0.346250  -0.013118  -0.062583  -0.044884   0.407637
    26  C   -0.017131  -0.047820   0.008644  -0.000364   0.006771  -0.082463
    27  H    0.000000  -0.000000  -0.000000   0.000000   0.000000  -0.000000
    28  H    0.000000   0.000000  -0.000000   0.000000  -0.000000  -0.000000
    29  H   -0.000000  -0.000000   0.000000   0.000000   0.000000   0.000000
    30  H    0.000000  -0.000000   0.000000   0.000000  -0.000000   0.000000
    31  H    0.000002  -0.000005  -0.000000   0.000000   0.000000   0.000004
    32  H    0.000000  -0.000000  -0.000000   0.000000  -0.000000   0.000000
    33  H   -0.000000   0.000000   0.000000  -0.000000  -0.000000  -0.000000
    34  H    0.000604   0.004091  -0.040107  -0.008350   0.000312   0.000010
    35  H    0.003995   0.001113   0.002526  -0.000197   0.000003  -0.000000
    36  H   -0.032466   0.002743   0.001180   0.000008  -0.000000   0.000002
    37  H    0.365082  -0.032679   0.004486  -0.000189   0.000022  -0.000184
    38  H    0.000020  -0.000361  -0.000010  -0.000124   0.004598  -0.025045
    39  H   -0.000203   0.004352  -0.039414   0.368530  -0.036275   0.003913
    40  H    0.000013   0.000795   0.002599  -0.032816   0.358651  -0.028101
    41  H    0.000000  -0.000002  -0.000000   0.000000   0.000000   0.000044
    42  H    0.003301  -0.013237  -0.000210   0.000012  -0.000169   0.004661
              25         26         27         28         29         30
     1  O   -0.000001  -0.000178  -0.000000   0.000001   0.000000   0.000000
     2  O   -0.053852  -0.016391  -0.000000   0.000000  -0.000000   0.000000
     3  N    0.006874  -0.059017  -0.000000   0.000258  -0.000000  -0.000000
     4  N   -0.048438   0.443525  -0.000000  -0.000027  -0.000000   0.000000
     5  C    0.000000  -0.000000  -0.038685   0.004302   0.371114  -0.040577
     6  C   -0.000000   0.000000   0.004024   0.000637  -0.032887   0.369537
     7  C   -0.000000   0.000000   0.370183  -0.039441  -0.037818   0.004383
     8  C    0.000000   0.000000  -0.032465   0.365083   0.003995   0.000604
     9  C   -0.000000  -0.000000   0.000008  -0.000189  -0.000197  -0.008350
    10  C   -0.000000  -0.000000  -0.000000   0.000022   0.000003   0.000312
    11  C    0.000000   0.000000   0.001180   0.004486   0.002526  -0.040107
    12  C    0.000000   0.000001   0.002743  -0.032677   0.001113   0.004091
    13  C    0.000000   0.000029   0.000002  -0.000184  -0.000000   0.000010
    14  C    0.000004  -0.000462  -0.000237  -0.013847   0.000014  -0.000192
    15  C   -0.000462   0.001559   0.000011   0.003297  -0.000000   0.000002
    16  C    0.014159  -0.000123   0.000000  -0.000000   0.000000   0.000000
    17  C   -0.000668  -0.000007   0.000000   0.000000   0.000000   0.000000
    18  C    0.008742   0.000176   0.000000   0.000000   0.000000   0.000000
    19  C   -0.094074  -0.017131   0.000000   0.000000  -0.000000   0.000000
    20  C    0.346250  -0.047820  -0.000000   0.000000  -0.000000  -0.000000
    21  C   -0.013118   0.008644  -0.000000  -0.000000   0.000000   0.000000
    22  C   -0.062583  -0.000364   0.000000   0.000000   0.000000   0.000000
    23  C   -0.044884   0.006771   0.000000  -0.000000   0.000000  -0.000000
    24  C    0.407637  -0.082463  -0.000000  -0.000000   0.000000   0.000000
    25  C    5.224688   0.387796   0.000000   0.000000  -0.000000   0.000000
    26  C    0.387796   4.821183   0.000000   0.000000   0.000000  -0.000000
    27  H    0.000000   0.000000   0.610585  -0.006039  -0.004964  -0.000189
    28  H    0.000000   0.000000  -0.006039   0.624152  -0.000194   0.000018
    29  H   -0.000000   0.000000  -0.004964  -0.000194   0.610932  -0.005452
    30  H    0.000000  -0.000000  -0.000189   0.000018  -0.005452   0.618371
    31  H    0.000016  -0.000403   0.000000  -0.000002  -0.000000  -0.000000
    32  H    0.000000   0.000000  -0.000000   0.000000  -0.000000  -0.000011
    33  H   -0.000000  -0.000000  -0.000000   0.000002  -0.000012   0.005749
    34  H   -0.000192   0.000002   0.000000   0.000000   0.000000   0.000000
    35  H    0.000014  -0.000000   0.000000  -0.000000   0.000000   0.000000
    36  H   -0.000237   0.000011   0.000000   0.000000   0.000000   0.000000
    37  H   -0.013845   0.003299   0.000000   0.000000  -0.000000   0.000000
    38  H   -0.013609  -0.009857   0.000000  -0.000012  -0.000000   0.000000
    39  H    0.000547   0.000008   0.000000   0.000000   0.000000   0.000000
    40  H    0.006098  -0.000165  -0.000000  -0.000000   0.000000  -0.000000
    41  H   -0.000048   0.001599   0.000003   0.001406  -0.000000   0.000000
    42  H   -0.038638   0.360329   0.000000  -0.000000   0.000000  -0.000000
              31         32         33         34         35         36
     1  O    0.275576   0.000107  -0.000069   0.000000  -0.000000  -0.000000
     2  O   -0.000002  -0.000000   0.000000   0.000000   0.000000  -0.000000
     3  N    0.090513   0.000009  -0.000000   0.000000  -0.000000  -0.000000
     4  N   -0.004313  -0.000000   0.000000  -0.000000  -0.000000  -0.000000
     5  C   -0.000000   0.000003   0.000229   0.000000   0.000000   0.000000
     6  C    0.000000  -0.000174  -0.008059   0.000000   0.000000   0.000000
     7  C    0.000000  -0.000000   0.000017   0.000000   0.000000   0.000000
     8  C    0.000020   0.000013  -0.000203   0.000000  -0.000000   0.000000
     9  C   -0.000124  -0.032813   0.368531   0.000000   0.000000   0.000000
    10  C    0.004600   0.358653  -0.036276  -0.000000   0.000000   0.000000
    11  C   -0.000010   0.002599  -0.039413   0.000000   0.000000  -0.000000
    12  C   -0.000361   0.000795   0.004352  -0.000000  -0.000000  -0.000000
    13  C   -0.025045  -0.028104   0.003913   0.000000   0.000000  -0.000000
    14  C   -0.013613   0.006097   0.000547   0.000000  -0.000000   0.000000
    15  C   -0.009849  -0.000164   0.000008  -0.000000   0.000000   0.000000
    16  C    0.000000   0.000000   0.000000   0.369537  -0.032887   0.004024
    17  C   -0.000000   0.000000   0.000000  -0.040577   0.371114  -0.038685
    18  C    0.000000   0.000000  -0.000000   0.004383  -0.037819   0.370183
    19  C    0.000002   0.000000  -0.000000   0.000604   0.003995  -0.032466
    20  C   -0.000005  -0.000000   0.000000   0.004091   0.001113   0.002743
    21  C   -0.000000  -0.000000   0.000000  -0.040107   0.002526   0.001180
    22  C    0.000000   0.000000  -0.000000  -0.008350  -0.000197   0.000008
    23  C    0.000000  -0.000000  -0.000000   0.000312   0.000003  -0.000000
    24  C    0.000004   0.000000  -0.000000   0.000010  -0.000000   0.000002
    25  C    0.000016   0.000000  -0.000000  -0.000192   0.000014  -0.000237
    26  C   -0.000403   0.000000  -0.000000   0.000002  -0.000000   0.000011
    27  H    0.000000  -0.000000  -0.000000   0.000000   0.000000   0.000000
    28  H   -0.000002   0.000000   0.000002   0.000000  -0.000000   0.000000
    29  H   -0.000000  -0.000000  -0.000012   0.000000   0.000000   0.000000
    30  H   -0.000000  -0.000011   0.005749   0.000000   0.000000   0.000000
    31  H    0.326615  -0.000019   0.000003   0.000000  -0.000000   0.000000
    32  H   -0.000019   0.589647  -0.005667  -0.000000   0.000000  -0.000000
    33  H    0.000003  -0.005667   0.606610   0.000000   0.000000   0.000000
    34  H    0.000000  -0.000000   0.000000   0.618371  -0.005452  -0.000189
    35  H   -0.000000   0.000000   0.000000  -0.005452   0.610933  -0.004964
    36  H    0.000000  -0.000000   0.000000  -0.000189  -0.004964   0.610588
    37  H   -0.000012  -0.000000   0.000000   0.000018  -0.000194  -0.006039
    38  H    0.000041   0.000000  -0.000000  -0.000000  -0.000000   0.000000
    39  H   -0.000000   0.000000   0.000000   0.005749  -0.000012  -0.000000
    40  H    0.000000  -0.000000   0.000000  -0.000011  -0.000000  -0.000000
    41  H    0.001760   0.000002  -0.000000  -0.000000   0.000000   0.000000
    42  H    0.003060   0.000000  -0.000000   0.000000  -0.000000   0.000003
              37         38         39         40         41         42
     1  O    0.000000  -0.000002   0.000000  -0.000000  -0.000487  -0.000399
     2  O    0.000001   0.275582  -0.000069   0.000107  -0.000399  -0.000487
     3  N   -0.000028  -0.004316   0.000000  -0.000000  -0.050890   0.001333
     4  N    0.000258   0.090545  -0.000000   0.000009   0.001328  -0.050888
     5  C    0.000000  -0.000000   0.000000   0.000000  -0.000009  -0.000000
     6  C   -0.000000   0.000000   0.000000   0.000000   0.000007   0.000000
     7  C    0.000000   0.000000  -0.000000   0.000000   0.000442   0.000000
     8  C    0.000000   0.000002  -0.000000   0.000000   0.003300   0.000000
     9  C    0.000000   0.000000  -0.000000   0.000000   0.000012   0.000000
    10  C   -0.000000   0.000000  -0.000000  -0.000000  -0.000169   0.000000
    11  C   -0.000000  -0.000000   0.000000  -0.000000  -0.000210  -0.000000
    12  C    0.000000  -0.000005   0.000000  -0.000000  -0.013240  -0.000002
    13  C   -0.000000   0.000004  -0.000000   0.000000   0.004662   0.000044
    14  C    0.000000   0.000016  -0.000000   0.000000  -0.038642  -0.000048
    15  C    0.000000  -0.000403  -0.000000   0.000000   0.360336   0.001599
    16  C    0.000637   0.000000  -0.008059  -0.000174   0.000000   0.000007
    17  C    0.004303  -0.000000   0.000229   0.000003  -0.000000  -0.000009
    18  C   -0.039443   0.000000   0.000017  -0.000000   0.000000   0.000442
    19  C    0.365082   0.000020  -0.000203   0.000013   0.000000   0.003301
    20  C   -0.032679  -0.000361   0.004352   0.000795  -0.000002  -0.013237
    21  C    0.004486  -0.000010  -0.039414   0.002599  -0.000000  -0.000210
    22  C   -0.000189  -0.000124   0.368530  -0.032816   0.000000   0.000012
    23  C    0.000022   0.004598  -0.036275   0.358651   0.000000  -0.000169
    24  C   -0.000184  -0.025045   0.003913  -0.028101   0.000044   0.004661
    25  C   -0.013845  -0.013609   0.000547   0.006098  -0.000048  -0.038638
    26  C    0.003299  -0.009857   0.000008  -0.000165   0.001599   0.360329
    27  H    0.000000   0.000000   0.000000  -0.000000   0.000003   0.000000
    28  H    0.000000  -0.000012   0.000000  -0.000000   0.001406  -0.000000
    29  H   -0.000000  -0.000000   0.000000   0.000000  -0.000000   0.000000
    30  H    0.000000   0.000000   0.000000  -0.000000   0.000000  -0.000000
    31  H   -0.000012   0.000041  -0.000000   0.000000   0.001760   0.003060
    32  H   -0.000000   0.000000   0.000000  -0.000000   0.000002   0.000000
    33  H    0.000000  -0.000000   0.000000   0.000000  -0.000000  -0.000000
    34  H    0.000018  -0.000000   0.005749  -0.000011  -0.000000   0.000000
    35  H   -0.000194  -0.000000  -0.000012  -0.000000   0.000000  -0.000000
    36  H   -0.006039   0.000000  -0.000000  -0.000000   0.000000   0.000003
    37  H    0.624158  -0.000002   0.000002   0.000000  -0.000000   0.001408
    38  H   -0.000002   0.326553   0.000003  -0.000019   0.003061   0.001761
    39  H    0.000002   0.000003   0.606611  -0.005667  -0.000000  -0.000000
    40  H    0.000000  -0.000019  -0.005667   0.589648   0.000000   0.000002
    41  H   -0.000000   0.003061  -0.000000   0.000000   0.614221   0.000211
[...]
 0.00007981,-0.00004763,0.00000422,-0.00000351,0.00001350,0.00009700,-0
 .00006223,-0.00002022,0.00005352,0.00000679,-0.00013512,-0.00016834,0.
 00003780,0.00000984,-0.00033120,0.00006800,0.00008497,0.00027615,0.000
 10574,-0.00025169,-0.00094974,-0.00004960,-0.00025087,-0.00047665,0.00
 011189,0.00048467,-0.00003268,-0.00016501,-0.00013212,0.00048758,0.000
 08650,-0.00052868,-0.00025105,0.00005937,0.00034503,0.00066798,-0.0009
 0568,0.00097891,0.00031299,-0.00033387,-0.00075940,-0.00057536,0.00167
 999,0.00117916,0.00400628,0.00238870,-0.01175517,0.00332774,0.00262111
 ,0.00225181,-0.00075335,-0.00227171,0.00083015,0.00509257,0.00086230,0
 .00001335,0.00001678,0.00000504,-0.00000514,0.00000187,0.00009422,0.00
 000378,0.00000829,0.00000341,-0.00000247,0.00000673,0.00000330,0.00077
 879,-0.00018114,-0.00004234,-0.00000008,-0.00000106,0.00000652,0.00000
 351,0.00001413,0.00001006,-0.00000806,-0.00000689,0.00000356,0.0000106
 2,-0.00000944,-0.00000550,0.00001203,0.00001431,0.00002254,0.00006292,
 -0.00000494,-0.00003279,-0.03227206,0.00842758,0.03314882,-0.00000317,
 0.00002484,-0.00000703,0.00036644,-0.00005024,-0.00016370,0.00001043,0
 .00000943,0.00005909,-0.00004030,0.00001739,-0.00010336,0.00000111,-0.
 00000012,-0.00000050,-0.00000077,-0.00000139,0.00000033,-0.00000059,0.
 00000129,-0.00000011,0.00000014,-0.00000082,-0.00000043,-0.00000160,-0
 .00000298,0.00000036,-0.00000146,0.00000503,0.00000163,0.00000263,0.00
 000218,-0.00000026,-0.00000037,0.00000155,-0.00000163,-0.00000784,-0.0
 0002386,0.00000589,0.00001016,-0.00000303,-0.00000745,0.00000281,0.000
 00798,-0.00000006,0.00087836,0.00194451,-0.00138054,0.00017876,-0.0003
 4507,-0.00000267,0.00007687,0.00003934,-0.00004611,-0.00060014,0.00144
 648,-0.00010687,-0.00348025,-0.00300090,0.00274834,-0.01530272,0.02218
 639,0.00175620,-0.19670538,0.14126544,0.02041681,0.00950855,-0.0070663
 6,0.00007319,0.00090835,-0.00178033,0.00296306,0.00015946,-0.00082335,
 -0.00015216,-0.00010005,0.00007823,-0.00019636,0.00000022,-0.00000020,
 0.00000020,-0.00000041,0.,0.00000050,0.00000011,0.00000036,0.00000002,
 -0.00000031,0.00000023,0.00000019,0.00000879,-0.00001256,0.00000350,0.
 00000037,-0.00000053,0.00000020,-0.00000024,0.00000035,-0.00000014,0.0
 0016611,-0.00128632,0.00024187,-0.00001711,-0.00001900,0.00004539,0.00
 003475,-0.00007397,0.00001410,-0.00042249,-0.00014460,0.00017943,0.000
 00690,-0.00016237,-0.00008062,0.20400194,0.00004558,0.00000109,-0.0000
 1545,0.00144236,-0.00147641,-0.00019956,0.00004034,-0.00005165,0.00003
 561,0.00007087,-0.00018262,-0.00005613,0.00000890,-0.00000636,-0.00000
 158,-0.00000904,-0.00000222,0.00000290,-0.00000280,0.00001446,-0.00000
 172,-0.00002265,-0.00001663,0.00000903,0.00000274,-0.00001593,0.000001
 59,-0.00001354,-0.00000679,0.00000630,0.00002644,-0.00000447,-0.000006
 28,0.00003398,0.00005359,-0.00001983,-0.00004130,-0.00002564,0.0000159
 7,0.00007496,-0.00006916,-0.00001262,-0.00004248,0.00012497,-0.0000080
 5,-0.00173720,0.00076788,-0.00011267,0.00051316,0.00000363,-0.00015399
 ,-0.00011485,0.00038969,-0.00004460,-0.00049419,0.00013054,0.00010101,
 -0.00154979,0.00032035,0.00113156,-0.00585415,0.00816388,0.00098811,0.
 14057108,-0.20367991,-0.01215300,0.02317170,-0.01620227,-0.00289548,-0
 .00275878,-0.00294621,0.00304947,-0.00032381,-0.00034961,0.00000362,-0
 .00008596,0.00025162,-0.00014581,-0.00000271,-0.00000084,0.00000106,0.
 00000534,0.00000365,-0.00000193,-0.00000017,-0.00000356,0.00000073,0.0
 0000216,-0.00000164,-0.00000026,-0.00005240,0.00001857,0.00001414,0.00
 000252,0.00000017,-0.00000062,0.00000035,-0.00000330,0.00000037,0.0002
 9533,0.00007582,-0.00005654,0.00002973,0.00001851,0.00001069,0.0000174
 1,0.00000708,0.00000061,-0.00010154,-0.00001491,0.00005187,-0.00047639
 ,-0.00014024,0.00009648,-0.15220145,0.21395723,-0.00001061,-0.00000948
 ,-0.00000814,-0.00042047,0.00022781,-0.00015438,0.00005378,0.00004443,
 0.00019952,-0.00011259,-0.00004074,-0.00035183,-0.00000204,0.00000101,
 -0.00000028,0.00000164,0.00000070,-0.00000105,0.00000059,-0.00000289,0
 .00000011,0.00000332,0.00000278,-0.00000328,-0.00000062,0.00000322,-0.
 00000250,0.00000483,0.00000098,0.00000571,-0.00000443,0.00000067,0.000
 00419,-0.00000720,-0.00001054,-0.00000125,0.00000888,0.00001095,-0.000
 00603,-0.00002085,0.00000972,-0.00001337,0.00000862,-0.00002250,0.0000
 0882,-0.00074741,-0.00116629,-0.00236297,-0.00015019,0.00009159,-0.000
 01072,-0.00001965,-0.00008866,-0.00003975,0.00022698,-0.00045439,-0.00
 009117,0.00249900,0.00154617,0.00333965,0.00657850,-0.00703624,0.00349
 566,0.02053627,-0.01235150,-0.04420807,-0.00512782,0.00575797,0.005994
 20,0.00313179,0.00276916,0.00881976,-0.00023790,0.00014674,-0.00082415
 ,-0.00016815,-0.00019277,-0.00065792,0.00000063,0.00000034,0.00000054,
 -0.00000042,-0.00000040,0.00000153,0.00000011,0.00000058,0.00000027,-0
 .00000015,0.00000030,0.00000047,0.00001037,0.00000272,0.00001005,-0.00
 000032,0.00000025,0.00000081,-0.00000014,0.00000037,-0.00000056,-0.000
 03015,0.00039605,0.00017879,0.00003700,0.00002463,0.00011526,-0.000001
 62,0.00002675,0.00003540,0.00017206,0.00006427,0.00005749,-0.00002669,
 0.00000662,-0.00036592,-0.02462254,0.01131037,0.03158383,-0.00001645,-
 0.00002809,0.00000756,0.00219623,-0.00127758,-0.00114715,0.00015168,0.
 00021581,-0.00008860,0.00036641,0.00006511,-0.00012452,-0.00000828,0.0
 0000754,0.00000072,0.00000969,0.00000102,-0.00000316,0.00000565,-0.000
 01532,0.00000032,0.00001582,0.00002299,-0.00000973,-0.00000423,0.00001
 821,-0.00000202,0.00001707,0.00000483,-0.00000638,-0.00002782,0.000003
 75,0.00000715,-0.00003597,-0.00006049,0.00002144,0.00004799,0.00004264
 ,-0.00001962,-0.00008297,0.00008861,0.00000656,-0.00001125,-0.00013637
 ,0.00002954,-0.00024466,-0.00001249,0.00020159,0.00011034,-0.00023569,
 -0.00019349,0.00003023,0.00015174,0.00001904,-0.00015974,-0.00012319,-
 0.00009649,0.00045391,0.00070882,-0.00040182,0.00245840,0.00010832,0.0
 0197525,-0.00065719,0.00012953,0.00099827,-0.30206911,-0.06694837,0.08
 778224,-0.01707485,-0.00974922,0.00756956,-0.00106733,0.00390578,0.000
 77386,-0.00061192,-0.00110118,0.00041132,0.00000285,0.00000290,-0.0000
 0065,-0.00000350,-0.00000358,0.00000297,0.00000052,0.00000239,-0.00000
 025,-0.00000107,0.00000118,0.00000030,0.00001589,-0.00001546,-0.000000
 09,-0.00000216,0.00000007,0.00000095,0.00000038,0.00000252,-0.00000033
 ,0.00001655,-0.00000878,0.00004672,-0.00001960,-0.00000207,-0.00000997
 ,-0.00000974,-0.00000674,0.00000946,0.00002061,0.00001170,0.00000410,-
 0.00038723,0.00025894,-0.00005498,0.00031543,-0.00051807,-0.00159390,0
 .31646436,-0.00000702,0.00000388,0.00000015,-0.00189557,0.00211468,-0.
 00026470,-0.00011471,-0.00013686,0.00005153,-0.00023701,0.00018427,0.0
 0003104,-0.00000125,-0.00000290,0.00000064,-0.00000122,0.00000221,-0.0
 0000015,-0.00000131,0.00000248,-0.00000047,0.00000215,-0.00000995,0.00
 000034,0.00000355,-0.00000263,-0.00000063,-0.00000417,-0.00000277,0.00
 000128,0.00000233,-0.00000169,-0.00000048,0.00000816,0.00001570,-0.000
 00460,-0.00000644,-0.00000301,0.00000325,0.00000859,-0.00002370,0.0000
 0043,0.00002120,0.00002828,-0.00000922,-0.00113269,0.00060543,0.000297
 78,-0.00033878,-0.00040421,0.00004477,0.00021400,-0.00031738,0.0000256
 8,0.00015358,0.00037630,-0.00020685,-0.00009419,-0.00108434,0.00012325
 ,0.00092583,-0.00487499,0.00219475,-0.02903099,-0.00211002,0.00917133,
 -0.06901828,-0.07872070,0.02717379,0.02236696,0.00960623,-0.00744821,0
 .00238173,-0.00342479,0.00059220,0.00107638,0.00067538,-0.00039593,-0.
 00000057,-0.00000274,0.00000104,0.00000123,0.00000198,0.00000013,-0.00
 000005,0.00000041,0.00000013,-0.00000071,0.00000014,0.00000030,0.00000
 246,0.00000837,-0.00000106,0.00000007,-0.00000012,0.00000021,-0.000000
 53,0.00000017,0.00000025,0.00004176,-0.00003634,0.00002432,-0.00013674
 ,-0.00003655,0.00003583,-0.00001168,0.00001114,0.00000475,-0.00005723,
 -0.00000031,0.00002364,0.00045862,-0.00024426,-0.00016227,-0.00000556,
 0.00090071,-0.00111058,0.07423224,0.07719745,0.00000393,0.00000619,-0.
 00000910,-0.00104075,-0.00044149,-0.00220574,-0.00003177,-0.00004303,-
 0.00001171,-0.00007251,-0.00005543,0.00000079,0.00000223,-0.00000187,-
 0.00000156,-0.00000277,-0.00000080,0.00000022,-0.00000209,0.00000354,-
 0.00000244,-0.00000614,-0.00000561,-0.00000163,0.00000050,-0.00000482,
 0.00000034,-0.00000483,-0.00000130,-0.00000069,0.00000739,-0.00000088,
 -0.00000257,0.00000962,0.00001504,-0.00000280,-0.00001115,-0.00001080,
 0.00001018,0.00002028,-0.00002245,-0.00000883,0.00000244,0.00003584,0.
 00000313,0.00039436,-0.00002278,0.00034334,-0.00017576,0.00001533,-0.0
 0065979,0.00000833,0.00004347,0.00017810,-0.00014402,-0.00012762,-0.00
 050774,-0.00026382,-0.00010650,-0.00043032,0.00183421,0.00242875,0.008
 48281,0.00601396,0.00082623,0.00104585,0.08813807,0.02658135,-0.065364
 69,0.00204631,0.00174251,0.00263141,0.00103576,0.00015599,0.00365972,0
 .00003686,0.00022717,0.00011436,-0.00000005,0.00000004,0.00000233,0.00
 000215,0.00000150,0.00000386,0.00000017,-0.00000057,0.00000112,0.00000
 063,-0.00000024,0.00000056,-0.00000316,0.00000407,0.00000651,0.0000009
 5,0.00000021,0.00000089,0.00000020,-0.00000062,0.00000081,0.00003802,0
 .00003878,0.00015698,0.00001321,-0.00000269,-0.00005899,0.00001031,0.0
 0000333,0.00001576,0.00001595,0.00000392,0.00003673,-0.00008946,-0.000
 10505,-0.00038045,-0.00168201,-0.00096394,-0.00491834,-0.09609802,-0.0
 3017275,0.05797568,0.00014916,0.00002561,-0.00030101,0.00043285,-0.000
 17997,-0.00004936,-0.00670654,-0.00847834,0.01097784,0.00263754,0.0029
 4339,-0.00420438,0.00012188,-0.00009780,0.00002596,-0.00002729,-0.0002
 7328,0.00003211,0.00073709,-0.00014742,-0.00025413,-0.00089122,-0.0011
 3138,0.00042555,-0.00014792,-0.00007891,0.00006949,-0.00071786,-0.0004
 7133,0.00000067,-0.00010063,0.00034008,-0.00010064,-0.00085777,-0.0015
 3823,0.00014551,-0.00047122,0.00387341,0.00056458,-0.01335999,-0.00560
 245,0.00669541,-0.29471913,-0.04892128,0.07792737,0.00001640,0.0000019
 3,-0.00000893,-0.00001180,0.00000348,0.00000273,0.00001342,-0.00002007
 ,-0.00000202,-0.00000884,0.00003045,-0.00000808,0.00003060,-0.00007552
 ,0.00004272,-0.00004085,-0.00001922,0.00000753,0.00000222,0.00000649,0
 .,0.00001120,0.00000360,-0.00003210,0.00006085,0.00020552,-0.00009493,
 -0.00028451,0.00009064,0.00015082,0.00053879,0.00057030,-0.00043348,-0
 .00001153,0.00002596,-0.00001889,0.00177388,-0.00173116,0.00020061,0.0
 0006294,-0.00005301,-0.00000013,0.00001042,0.00001173,0.00000086,0.001
 04032,-0.00042935,0.00031325,-0.00020574,0.00019589,-0.00000977,0.0000
 4250,0.00004913,0.00002645,0.00000102,-0.00000314,-0.00000020,0.000000
 89,-0.00000171,0.00000050,0.00000049,0.00000226,0.00000091,0.00001140,
 0.00000468,0.00000225,-0.00054997,-0.00012088,0.00019010,0.00000403,-0
 .00000085,0.00000502,0.00000087,0.00000005,0.00000230,0.31178824,-0.00
 103579,0.00089631,-0.00000998,-0.00014555,0.00039998,-0.00000098,-0.03
 534010,-0.01427324,0.01713973,-0.00348801,0.00442395,-0.00152935,-0.00
 012845,0.00004654,0.00005541,-0.00003283,0.00026639,-0.00005009,-0.000
 40618,-0.00001221,0.00007742,0.00103148,-0.00246406,0.00011314,-0.0000
 1291,0.00017844,-0.00001878,0.00096849,0.00076888,-0.00058187,-0.00001
 734,-0.00026971,0.00000862,-0.00080072,0.00097111,-0.00015675,0.002217
 94,-0.00421891,0.00074915,0.01823064,0.01021468,-0.00583527,-0.0440853
 1,-0.06960776,0.01565147,0.00001291,-0.00002644,-0.00000149,0.00000392
 ,0.00002123,-0.00000480,0.00000930,-0.00001682,-0.00000075,0.00002706,
 0.00006649,-0.00002240,-0.00007364,-0.00013940,0.00006815,-0.00003339,
 0.00004131,-0.00000202,-0.00004931,-0.00000425,0.00001590,0.00003181,0
 .00014053,-0.00005024,0.00001356,-0.00049599,0.00005606,-0.00000494,0.
 00032392,-0.00000329,0.00055980,-0.00088059,-0.00011762,0.00001475,-0.
 00004316,-0.00000749,-0.00127203,-0.00391968,0.00128765,-0.00004261,0.
 00005280,0.00000844,-0.00001109,0.00001578,0.00000400,0.00185767,-0.00
 175122,0.00009175,0.00025235,-0.00028367,-0.00004468,-0.00002691,-0.00
 001601,0.00003876,-0.00000517,0.00000419,0.00000049,0.00000257,0.00000
 691,-0.00000165,0.00000798,0.00000656,-0.00000255,-0.00000217,0.000000
 42,0.00000434,0.00077701,-0.00076658,-0.00008325,0.00000089,0.00001293
 ,0.00000114,0.00000359,-0.00001138,0.00000247,0.06058363,0.07996373,-0
 .00011841,-0.00031356,-0.00079864,-0.00005555,0.00000902,0.00016651,0.
 01559560,0.00944357,0.02043825,-0.00309836,-0.00337090,-0.00880752,0.0
 0003112,0.00004654,0.00013723,-0.00000909,0.00001896,-0.00007989,-0.00
 020939,0.00000291,-0.00017868,0.00005192,0.00073378,-0.00022980,0.0000
 5823,0.00000005,0.00003065,-0.00024756,-0.00016945,-0.00089960,-0.0000
 3915,-0.00009370,-0.00022063,0.00001914,0.00005505,-0.00128899,0.00084
 927,0.00027512,0.00353700,0.00259650,0.00098903,0.00573547,0.07709718,
 0.01703929,-0.07703862,-0.00001081,0.00000166,-0.00001081,0.00000265,-
 0.00000467,-0.00000010,-0.00000707,0.00000766,-0.00000498,-0.00000746,
 -0.00002337,-0.00001256,0.00004237,0.00006868,0.00011039,0.00000998,-0
 .00000608,-0.00002787,0.00000961,-0.00000007,0.00000339,-0.00003694,-0
 .00004218,-0.00008090,-0.00006192,0.00000111,-0.00012969,0.00016719,-0
 .00003068,0.00025401,-0.00043160,-0.00012084,-0.00048796,-0.00001701,-
 0.00001064,-0.00005530,0.00012249,0.00141876,0.00115587,-0.00000187,0.
 00001138,0.00002934,0.00000480,-0.00000256,0.00001957,-0.00007891,0.00
 074670,0.00177154,-0.00001960,-0.00002833,-0.00011194,0.00003957,0.000
 01695,0.00015013,0.00000015,-0.00000009,-0.00000159,-0.00000024,-0.000
 00042,0.00000176,-0.00000008,-0.00000092,0.00000519,0.00000340,0.00000
 237,0.00002063,0.00003602,0.00017374,0.00000167,0.00000472,0.00000164,
 0.00001942,0.00000169,0.00000348,0.00000786,-0.09241017,-0.02671527,0.
 05660205,0.00043227,-0.00017988,-0.00004940,0.00014927,0.00002643,-0.0
 0030118,0.00263686,0.00294456,-0.00420325,-0.00670769,-0.00847785,0.01
 097303,-0.00001178,0.00000349,0.00000274,0.00001639,0.00000191,-0.0000
 0893,0.00001342,-0.00002006,-0.00000202,-0.00000885,0.00003045,-0.0000
 0805,0.00000221,0.00000647,0.,0.00001119,0.00000363,-0.00003208,-0.000
 04084,-0.00001921,0.00000754,0.00003060,-0.00007552,0.00004267,0.00006
 088,0.00020531,-0.00009490,-0.00028445,0.00009063,0.00015082,0.0005389
 4,0.00057039,-0.00043347,-0.00002732,-0.00027334,0.00003216,0.00012206
 ,-0.00009772,0.00002604,0.00073688,-0.00014688,-0.00025383,-0.00089126
 ,-0.00113037,0.00042347,-0.00085709,-0.00153855,0.00014499,-0.00010070
 ,0.00034009,-0.00010071,-0.00014796,-0.00007898,0.00006951,-0.00071788
 ,-0.00047139,0.00000004,-0.00047207,0.00387373,0.00056546,-0.01336078,
 -0.00560335,0.00669281,-0.29473294,-0.04893575,0.07791004,0.00000049,0
 .00000226,0.00000090,0.00001140,0.00000468,0.00000222,0.00000089,-0.00
 000171,0.00000050,0.00000101,-0.00000315,-0.00000020,-0.00054932,-0.00
 012073,0.00019026,0.00000088,0.00000005,0.00000230,0.00000403,-0.00000
 085,0.00000502,0.00001041,0.00001173,0.00000088,0.00006294,-0.00005296
 ,-0.00000008,-0.00001152,0.00002595,-0.00001893,0.00177304,-0.00172996
 ,0.00020060,0.00104143,-0.00043008,0.00031395,0.00004248,0.00004915,0.
 00002648,-0.00020578,0.00019583,-0.00000984,-0.00037618,0.00040709,0.0
 0011759,0.31180444,-0.00014502,0.00039956,-0.00000098,-0.00103648,0.00
 089687,-0.00000989,-0.00348772,0.00442422,-0.00152806,-0.03534016,-0.0
 1427090,0.01713299,0.00000392,0.00002122,-0.00000480,0.00001291,-0.000
 02643,-0.00000150,0.00000929,-0.00001682,-0.00000075,0.00002708,0.0000
 6649,-0.00002241,-0.00004929,-0.00000422,0.00001591,0.00003183,0.00014
 046,-0.00005026,-0.00003339,0.00004130,-0.00000202,-0.00007366,-0.0001
 3935,0.00006818,0.00001351,-0.00049567,0.00005610,-0.00000493,0.000323
 86,-0.00000328,0.00056000,-0.00088061,-0.00011765,-0.00003285,0.000266
 32,-0.00004997,-0.00012844,0.00004651,0.00005518,-0.00040615,-0.000012
 13,0.00007746,0.00103168,-0.00246164,0.00011269,-0.00080111,0.00097066
 ,-0.00015667,-0.00001727,-0.00026957,0.00000872,-0.00001298,0.00017843
 ,-0.00001888,0.00096867,0.00076927,-0.00058131,0.00221848,-0.00421898,
 0.00074808,0.01822977,0.01021720,-0.00583286,-0.04409643,-0.06961435,0
 .01565088,0.00000798,0.00000656,-0.00000256,-0.00000219,0.00000042,0.0
 0000433,0.00000257,0.00000691,-0.00000165,-0.00000517,0.00000419,0.000
 00049,0.00077607,-0.00076614,-0.00008363,0.00000358,-0.00001137,0.0000
 0247,0.00000090,0.00001293,0.00000114,-0.00001110,0.00001577,0.0000039
 8,-0.00004263,0.00005278,0.00000840,0.00001477,-0.00004315,-0.00000744
 ,-0.00127212,-0.00391806,0.00128286,0.00185902,-0.00175262,0.00009224,
 -0.00002692,-0.00001601,0.00003871,0.00025247,-0.00028359,-0.00004447,
 0.00040706,0.00037800,-0.00013371,0.06059444,0.07996167,-0.00005512,0.
 00000868,0.00016629,-0.00011838,-0.00031463,-0.00079874,-0.00309718,-0
 .00336997,-0.00880764,0.01559266,0.00944233,0.02043654,0.00000266,-0.0
 0000467,-0.00000011,-0.00001081,0.00000165,-0.00001081,-0.00000706,0.0
 0000765,-0.00000497,-0.00000749,-0.00002335,-0.00001256,0.00000959,-0.
 00000005,0.00000339,-0.00003693,-0.00004216,-0.00008085,0.00000993,-0.
 00000608,-0.00002787,0.00004235,0.00006865,0.00011041,-0.00006180,0.00
 000127,-0.00012969,0.00016716,-0.00003048,0.00025399,-0.00043176,-0.00
 012073,-0.00048794,-0.00000931,0.00001876,-0.00007974,0.00003141,0.000
 04645,0.00013708,-0.00020944,0.00000353,-0.00017886,0.00005297,0.00073
 087,-0.00022909,0.00001786,0.00005408,-0.00128859,-0.00003927,-0.00009
 365,-0.00022070,0.00005809,0.00000009,0.00003071,-0.00024712,-0.000169
 05,-0.00090010,0.00085006,0.00027421,0.00353723,0.00259405,0.00099305,
 0.00573681,0.07707843,0.01703490,-0.07702325,-0.00000008,-0.00000091,0
 .00000519,0.00000343,0.00000238,0.00002063,-0.00000023,-0.00000042,0.0
 0000176,0.00000015,-0.00000009,-0.00000159,0.00003566,0.00017344,0.000
 00177,0.00000169,0.00000348,0.00000786,0.00000472,0.00000164,0.0000194
 1,0.00000479,-0.00000254,0.00001956,-0.00000190,0.00001139,0.00002935,
 -0.00001697,-0.00001069,-0.00005527,0.00012119,0.00141426,0.00115667,-
 0.00008052,0.00074776,0.00177331,0.00003951,0.00001696,0.00015019,-0.0
 0001950,-0.00002838,-0.00011194,0.00011763,-0.00013354,0.00026818,-0.0
 9238514,-0.02670607,0.05658397\\0.00002425,-0.00001709,0.00000087,0.00
 003231,-0.00004435,0.00000141,-0.00001749,0.00002882,0.00000392,-0.000
 02123,-0.00000764,0.00000934,-0.00000915,-0.00000039,0.00000388,0.0000
 0685,0.00001074,-0.00000360,0.00000068,-0.00001197,0.00000081,0.000011
 32,0.00001176,-0.00000368,-0.00000488,-0.00000339,0.00000215,-0.000002
 52,0.00000866,-0.00000131,0.00000933,-0.00001729,0.00000017,-0.0000190
 6,0.00000418,0.00000158,0.00001687,0.00000205,-0.00000561,-0.00000319,
 -0.00000115,0.00000902,-0.00000321,-0.00000852,-0.00001077,-0.00000460
 ,-0.00000827,0.00000280,0.00000662,0.00000152,-0.00000135,-0.00000028,
 0.00000893,-0.00000211,-0.00000612,-0.00000740,0.00000422,0.00001541,-
 0.00000651,-0.00000606,-0.00001264,0.00001733,0.00000076,0.00000783,0.
 00000934,-0.00000380,0.00000428,-0.00001773,0.00000123,0.00001291,0.00
 002377,-0.00000753,-0.00001820,-0.00000627,0.00000963,0.00000201,-0.00
 002332,-0.00000003,-0.00000094,0.00000361,0.00000057,-0.00000210,0.000
 00346,0.00000053,0.00000305,-0.00000063,-0.00000169,-0.00000051,-0.000
 00197,0.00000024,-0.00002411,0.00001427,-0.00000062,0.00000207,-0.0000
 0402,0.00000020,0.00000171,0.00000002,-0.00000114,0.00000039,0.0000017
 5,-0.00000057,-0.00000355,0.00000034,0.00000034,0.00000134,-0.00000353
 ,0.00000083,0.00000205,0.00000183,-0.00000059,-0.00000226,0.00003339,-
 0.00000834,-0.00000226,-0.00000082,0.00000041,-0.00000195,0.00000333,0
 .00000016,-0.00000491,-0.00000067,0.00000471,0.00000389,0.00000384,-0.
 00000097\\\@


 MEN HAVE BECOME THE TOOLS OF THEIR TOOLS... THOREAU   
 Job cpu time:       0 days  2 hours 22 minutes 10.6 seconds.
 Elapsed time:       0 days  2 hours 22 minutes 30.9 seconds.
 File lengths (MBytes):  RWF=    999 Int=      0 D2E=      0 Chk=     20 Scr=      1
 Normal termination of Gaussian 16 at Mon Aug 16 20:14:27 2021.
