 Entering Gaussian System, Link 0=g16
 Initial command:
 /opt/export//g16/l1.exe "/tmp/Gau-68844.inp" -scrdir="/tmp/"
 Entering Link 1 = /opt/export//g16/l1.exe PID=     68845.
  
 Copyright (c) 1988,1990,1992,1993,1995,1998,2003,2009,2016,
            Gaussian, Inc.  All Rights Reserved.
  
 This is part of the Gaussian(R) 16 program.  It is based on
 the Gaussian(R) 09 system (copyright 2009, Gaussian, Inc.),
 the Gaussian(R) 03 system (copyright 2003, Gaussian, Inc.),
 the Gaussian(R) 98 system (copyright 1998, Gaussian, Inc.),
 the Gaussian(R) 94 system (copyright 1995, Gaussian, Inc.),
 the Gaussian 92(TM) system (copyright 1992, Gaussian, Inc.),
 the Gaussian 90(TM) system (copyright 1990, Gaussian, Inc.),
 the Gaussian 88(TM) system (copyright 1988, Gaussian, Inc.),
 the Gaussian 86(TM) system (copyright 1986, Carnegie Mellon
 University), and the Gaussian 82(TM) system (copyright 1983,
 Carnegie Mellon University). Gaussian is a federally registered
 trademark of Gaussian, Inc.
  
 This software contains proprietary and confidential information,
 including trade secrets, belonging to Gaussian, Inc.
  
 This software is provided under written license and may be
 used, copied, transmitted, or stored only in accord with that
 written license.
  
 The following legend is applicable only to US Government
 contracts under FAR:
  
                    RESTRICTED RIGHTS LEGEND
  
 Use, reproduction and disclosure by the US Government is
 subject to restrictions as set forth in subparagraphs (a)
 and (c) of the Commercial Computer Software - Restricted
 Rights clause in FAR 52.227-19.
  
 Gaussian, Inc.
 340 Quinnipiac St., Bldg. 40, Wallingford CT 06492
  
  
 ---------------------------------------------------------------
 Warning -- This program may not be used in any manner that
 competes with the business of Gaussian, Inc. or will provide
 assistance to any competitor of Gaussian, Inc.  The licensee
 of this program is prohibited from giving any competitor of
 Gaussian, Inc. access to this program.  By using this program,
 the user acknowledges that Gaussian, Inc. is engaged in the
 business of creating and licensing software in the field of
 computational chemistry and represents and warrants to the
 licensee that it is not a competitor of Gaussian, Inc. and that
 it will not use this program in any manner prohibited above.
 ---------------------------------------------------------------
  

 Cite this work as:
 Gaussian 16, Revision A.03,
 M. J. Frisch, G. W. Trucks, H. B. Schlegel, G. E. Scuseria, 
 M. A. Robb, J. R. Cheeseman, G. Scalmani, V. Barone, 
 G. A. Petersson, H. Nakatsuji, X. Li, M. Caricato, A. V. Marenich, 
 J. Bloino, B. G. Janesko, R. Gomperts, B. Mennucci, H. P. Hratchian, 
 J. V. Ortiz, A. F. Izmaylov, J. L. Sonnenberg, D. Williams-Young, 
 F. Ding, F. Lipparini, F. Egidi, J. Goings, B. Peng, A. Petrone, 
 T. Henderson, D. Ranasinghe, V. G. Zakrzewski, J. Gao, N. Rega, 
 G. Zheng, W. Liang, M. Hada, M. Ehara, K. Toyota, R. Fukuda, 
 J. Hasegawa, M. Ishida, T. Nakajima, Y. Honda, O. Kitao, H. Nakai, 
 T. Vreven, K. Throssell, J. A. Montgomery, Jr., J. E. Peralta, 
 F. Ogliaro, M. J. Bearpark, J. J. Heyd, E. N. Brothers, K. N. Kudin, 
 V. N. Staroverov, T. A. Keith, R. Kobayashi, J. Normand, 
 K. Raghavachari, A. P. Rendell, J. C. Burant, S. S. Iyengar, 
 J. Tomasi, M. Cossi, J. M. Millam, M. Klene, C. Adamo, R. Cammi, 
 J. W. Ochterski, R. L. Martin, K. Morokuma, O. Farkas, 
 J. B. Foresman, and D. J. Fox, Gaussian, Inc., Wallingford CT, 2016.
 
 ******************************************
 Gaussian 16:  EM64L-G16RevA.03 25-Dec-2016
                16-Aug-2021 
 ******************************************
 %OldChk=PY101_CAM-B3LYP.chk
 %chk=TD_PY101_CAM-B3LYP.chk
 Copying data from "PY101_CAM-B3LYP.chk" to current chk file "TD_PY101_CAM-B3LYP.chk"
 IOpt=  2 FromEx=T IUOpen= 4 IOptOp= 5 NList=   0 IFRang= 0 IUIn= 4 IUOut= 2.
 ----------------------------------------------------------------------
 #n CAM-B3LYP/6-31G(d,p) Opt=ReadFC Freq TD=(nstates=4) Geom=AllCheck G
 uess=Read
 ----------------------------------------------------------------------
 1/10=3,18=20,19=15,26=3,29=7,38=1/1,3;
 2/9=110,12=2,40=1/2;
 3/5=1,6=6,7=101,11=9,14=-4,25=1,30=1,71=1,74=-40,116=-2/1,2,3,8;
 4/5=1/1;
 5/5=2,38=6/2;
 8/6=1,10=2,108=4/1;
 9/15=2,41=4,42=1,70=2/14;
 10/5=4/2;
 6/7=2,8=2,9=2,10=2/1;
 7/12=6,13=5/1,2,3,16;
 1/18=20,19=15,26=3/3(2);
 2/9=110/2;
 99//99;
 2/9=110/2;
 3/5=1,6=6,7=101,11=9,14=-2,25=1,30=1,71=1,74=-40/1,2,3,8;
 4/5=5,16=3,69=1/1;
 5/5=2,38=5/2;
 8/6=1,10=2,108=4/1;
 9/15=2,41=4,42=1,49=4,70=2/14;
 10/5=4/2;
 7/12=6,13=5/1,2,3,16;
 1/18=20,19=15,26=3/3(-8);
 2/9=110/2;
 6/7=2,8=2,9=2,10=2/1;
 99//99;
 Structure from the checkpoint file:  "TD_PY101_CAM-B3LYP.chk"
 -----
 PY101
 -----
 Charge =  0 Multiplicity = 1
 Redundant internal coordinates found in file.  (old form).
 O,0,2.4125860685,-1.0957207661,-1.0990339964
 O,0,-3.4401022696,1.2700928785,0.170256158
 N,0,0.0159078918,-0.3477400142,-0.5409829359
 N,0,-1.0436361978,0.522573836,-0.3872134332
 C,0,-0.1623768592,-6.7017414945,0.6030148541
 C,0,1.0897392187,-6.3393819375,0.1817498122
 C,0,-1.1591029651,-5.7159191013,0.7192711547
 C,0,-0.8919460672,-4.4036082072,0.4170171128
 C,0,2.6957747808,-4.6294500121,-0.5726147841
 C,0,3.0064226071,-3.3434381673,-0.8827376001
 C,0,1.3920262454,-4.9962345619,-0.1358598843
 C,0,0.3913799257,-3.9945086024,-0.0212832744
 C,0,2.0235590001,-2.3268690058,-0.775842655
 C,0,0.7240343998,-2.6294724974,-0.3513912113
 C,0,-0.2579997218,-1.5759141181,-0.2513382287
 C,0,-2.1180850517,6.5140932493,-1.1099287486
 C,0,-0.865863085,6.8767704962,-1.5306000874
 C,0,0.1311734994,5.8912026526,-1.6463688367
 C,0,-0.1358040813,4.5788165386,-1.3442878283
 C,0,-1.41925847,4.1693738745,-0.9066740056
 C,0,-2.4201894637,5.1708651433,-0.7924791689
 C,0,-3.7240241919,4.8037783406,-0.3562275534
 C,0,-4.0344807841,3.5176988924,-0.046175762
 C,0,-3.0513371014,2.5013764703,-0.1527521067
 C,0,-1.7517711515,2.8042501631,-0.5767786974
 C,0,-0.7696879902,1.7507416806,-0.676825483
 H,0,-2.1538401438,-5.9939710982,1.0523132125
 H,0,-1.6911641937,-3.6805307208,0.5218690706
 H,0,-0.3864965328,-7.7349160984,0.8449047024
 H,0,1.875831008,-7.0825027389,0.0841767295
 H,0,1.6354998032,-0.4858779154,-0.9813326867
 H,0,3.9951559938,-3.0513246836,-1.2163417545
 H,0,3.4503659118,-5.4061512299,-0.655373101
 H,0,-2.9044045093,7.2570184209,-1.0127009616
 H,0,-0.6418921889,7.9100012781,-1.7723873503
 H,0,1.1260234661,6.1695229069,-1.978849343
 H,0,0.6636763057,3.8559649885,-1.448683885
 H,0,-2.6628200471,0.6605550151,0.0525228483
 H,0,-4.4788353077,5.5802987401,-0.2737830061
 H,0,-5.0232613376,3.225346987,0.2870788536
 H,0,-1.2688343267,-1.8102372683,0.0784976833
 H,0,0.2411679132,1.9851076863,-1.0065638223
 Recover connectivity data from disk.

 GradGradGradGradGradGradGradGradGradGradGradGradGradGradGradGradGradGrad
 Berny optimization.
 Initialization pass.
 Force constant matrix read from checkpoint file:
 "TD_PY101_CAM-B3LYP.chk"
                           ----------------------------
                           !    Initial Parameters    !
                           ! (Angstroms and Degrees)  !
 --------------------------                            --------------------------
 ! Name  Definition              Value          Derivative Info.                !
 --------------------------------------------------------------------------------
 ! R1    R(1,13)                 1.331          D2E/DX2 =    0.5024             !
 ! R2    R(1,31)                 0.9948         D2E/DX2 =    0.3677             !
 ! R3    R(2,24)                 1.331          D2E/DX2 =    0.5024             !
 ! R4    R(2,38)                 0.9948         D2E/DX2 =    0.3677             !
 ! R5    R(3,4)                  1.3798         D2E/DX2 =    0.3732             !
 ! R6    R(3,15)                 1.2913         D2E/DX2 =    0.6639             !
 ! R7    R(4,26)                 1.2912         D2E/DX2 =    0.6639             !
 ! R8    R(5,6)                  1.3699         D2E/DX2 =    0.4613             !
 ! R9    R(5,7)                  1.4067         D2E/DX2 =    0.3814             !
 ! R10   R(5,29)                 1.0845         D2E/DX2 =    0.3665             !
 ! R11   R(6,11)                 1.4129         D2E/DX2 =    0.3758             !
 ! R12   R(6,30)                 1.0861         D2E/DX2 =    0.3625             !
 ! R13   R(7,8)                  1.3729         D2E/DX2 =    0.4526             !
 ! R14   R(7,27)                 1.0852         D2E/DX2 =    0.3648             !
 ! R15   R(8,12)                 1.4165         D2E/DX2 =    0.3664             !
 ! R16   R(8,28)                 1.0829         D2E/DX2 =    0.3698             !
 ! R17   R(9,10)                 1.3589         D2E/DX2 =    0.4903             !
 ! R18   R(9,11)                 1.423          D2E/DX2 =    0.3605             !
 ! R19   R(9,33)                 1.0861         D2E/DX2 =    0.3632             !
 ! R20   R(10,13)                1.418          D2E/DX2 =    0.366              !
 ! R21   R(10,32)                1.0836         D2E/DX2 =    0.3701             !
 ! R22   R(11,12)                1.4205         D2E/DX2 =    0.3063             !
 ! R23   R(12,14)                1.4432         D2E/DX2 =    0.3529             !
 ! R24   R(13,14)                1.4002         D2E/DX2 =    0.4514             !
 ! R25   R(14,15)                1.4437         D2E/DX2 =    0.382              !
 ! R26   R(15,41)                1.0888         D2E/DX2 =    0.3573             !
 ! R27   R(16,17)                1.3699         D2E/DX2 =    0.4613             !
 ! R28   R(16,21)                1.4129         D2E/DX2 =    0.3758             !
 ! R29   R(16,34)                1.0861         D2E/DX2 =    0.3625             !
 ! R30   R(17,18)                1.4067         D2E/DX2 =    0.3814             !
 ! R31   R(17,35)                1.0845         D2E/DX2 =    0.3665             !
 ! R32   R(18,19)                1.3729         D2E/DX2 =    0.4526             !
 ! R33   R(18,36)                1.0852         D2E/DX2 =    0.3648             !
 ! R34   R(19,20)                1.4165         D2E/DX2 =    0.3664             !
 ! R35   R(19,37)                1.0829         D2E/DX2 =    0.3698             !
 ! R36   R(20,21)                1.4205         D2E/DX2 =    0.3063             !
 ! R37   R(20,25)                1.4432         D2E/DX2 =    0.3528             !
 ! R38   R(21,22)                1.423          D2E/DX2 =    0.3605             !
 ! R39   R(22,23)                1.3589         D2E/DX2 =    0.4903             !
 ! R40   R(22,39)                1.0861         D2E/DX2 =    0.3632             !
 ! R41   R(23,24)                1.418          D2E/DX2 =    0.366              !
 ! R42   R(23,40)                1.0836         D2E/DX2 =    0.3701             !
 ! R43   R(24,25)                1.4001         D2E/DX2 =    0.4516             !
 ! R44   R(25,26)                1.4437         D2E/DX2 =    0.3821             !
 ! R45   R(26,42)                1.0888         D2E/DX2 =    0.3573             !
 ! A1    A(13,1,31)            108.0592         D2E/DX2 =    0.3014             !
 ! A2    A(24,2,38)            108.0527         D2E/DX2 =    0.3015             !
 ! A3    A(4,3,15)             114.3347         D2E/DX2 =    0.3774             !
 ! A4    A(3,4,26)             114.3332         D2E/DX2 =    0.3774             !
 ! A5    A(6,5,7)              119.1883         D2E/DX2 =    0.0816             !
 ! A6    A(6,5,29)             120.6287         D2E/DX2 =    0.0822             !
 ! A7    A(7,5,29)             120.183          D2E/DX2 =    0.0823             !
 ! A8    A(5,6,11)             121.0739         D2E/DX2 =    0.0838             !
 ! A9    A(5,6,30)             120.5426         D2E/DX2 =    0.0839             !
 ! A10   A(11,6,30)            118.3835         D2E/DX2 =    0.0843             !
 ! A11   A(5,7,8)              120.9169         D2E/DX2 =    0.0819             !
 ! A12   A(5,7,27)             119.6879         D2E/DX2 =    0.0834             !
 ! A13   A(8,7,27)             119.3952         D2E/DX2 =    0.0836             !
 ! A14   A(7,8,12)             121.3651         D2E/DX2 =    0.0847             !
 ! A15   A(7,8,28)             118.251          D2E/DX2 =    0.0896             !
 ! A16   A(12,8,28)            120.3839         D2E/DX2 =    0.0848             !
 ! A17   A(10,9,11)            121.5619         D2E/DX2 =    0.0807             !
 ! A18   A(10,9,33)            120.0389         D2E/DX2 =    0.083              !
 ! A19   A(11,9,33)            118.3992         D2E/DX2 =    0.0835             !
 ! A20   A(9,10,13)            120.1849         D2E/DX2 =    0.0838             !
 ! A21   A(9,10,32)            122.2744         D2E/DX2 =    0.0795             !
 ! A22   A(13,10,32)           117.5407         D2E/DX2 =    0.0803             !
 ! A23   A(6,11,9)             120.6656         D2E/DX2 =    0.1088             !
 ! A24   A(6,11,12)            120.101          D2E/DX2 =    0.0834             !
 ! A25   A(9,11,12)            119.2334         D2E/DX2 =    0.0816             !
 ! A26   A(8,12,11)            117.3547         D2E/DX2 =    0.088              !
 ! A27   A(8,12,14)            123.5569         D2E/DX2 =    0.1227             !
 ! A28   A(11,12,14)           119.0884         D2E/DX2 =    0.0882             !
 ! A29   A(1,13,10)            116.2454         D2E/DX2 =    0.1965             !
 ! A30   A(1,13,14)            123.0104         D2E/DX2 =    0.23               !
 ! A31   A(10,13,14)           120.7443         D2E/DX2 =    0.0939             !
 ! A32   A(12,14,13)           119.1873         D2E/DX2 =    0.0946             !
 ! A33   A(12,14,15)           121.1692         D2E/DX2 =    0.2541             !
 ! A34   A(13,14,15)           119.6436         D2E/DX2 =    0.3121             !
 ! A35   A(3,15,14)            122.2938         D2E/DX2 =    0.2496             !
 ! A36   A(3,15,41)            118.0075         D2E/DX2 =    0.1405             !
 ! A37   A(14,15,41)           119.6987         D2E/DX2 =    0.1229             !
 ! A38   A(17,16,21)           121.074          D2E/DX2 =    0.0838             !
 ! A39   A(17,16,34)           120.5427         D2E/DX2 =    0.0839             !
 ! A40   A(21,16,34)           118.3833         D2E/DX2 =    0.0843             !
 ! A41   A(16,17,18)           119.1883         D2E/DX2 =    0.0816             !
 ! A42   A(16,17,35)           120.6287         D2E/DX2 =    0.0822             !
 ! A43   A(18,17,35)           120.183          D2E/DX2 =    0.0823             !
 ! A44   A(17,18,19)           120.917          D2E/DX2 =    0.0819             !
 ! A45   A(17,18,36)           119.6878         D2E/DX2 =    0.0834             !
 ! A46   A(19,18,36)           119.3951         D2E/DX2 =    0.0836             !
 ! A47   A(18,19,20)           121.3651         D2E/DX2 =    0.0847             !
 ! A48   A(18,19,37)           118.2505         D2E/DX2 =    0.0896             !
 ! A49   A(20,19,37)           120.3844         D2E/DX2 =    0.0848             !
 ! A50   A(19,20,21)           117.3546         D2E/DX2 =    0.088              !
 ! A51   A(19,20,25)           123.5583         D2E/DX2 =    0.1227             !
 ! A52   A(21,20,25)           119.0871         D2E/DX2 =    0.0882             !
 ! A53   A(16,21,20)           120.101          D2E/DX2 =    0.0834             !
 ! A54   A(16,21,22)           120.6653         D2E/DX2 =    0.1088             !
 ! A55   A(20,21,22)           119.2338         D2E/DX2 =    0.0816             !
 ! A56   A(21,22,23)           121.5618         D2E/DX2 =    0.0807             !
 ! A57   A(21,22,39)           118.3993         D2E/DX2 =    0.0835             !
 ! A58   A(23,22,39)           120.0388         D2E/DX2 =    0.083              !
 ! A59   A(22,23,24)           120.1835         D2E/DX2 =    0.0838             !
 ! A60   A(22,23,40)           122.2753         D2E/DX2 =    0.0795             !
 ! A61   A(24,23,40)           117.5412         D2E/DX2 =    0.0803             !
 ! A62   A(2,24,23)            116.249          D2E/DX2 =    0.1967             !
 ! A63   A(2,24,25)            123.005          D2E/DX2 =    0.2303             !
 ! A64   A(23,24,25)           120.746          D2E/DX2 =    0.094              !
 ! A65   A(20,25,24)           119.1878         D2E/DX2 =    0.0946             !
 ! A66   A(20,25,26)           121.1747         D2E/DX2 =    0.2543             !
 ! A67   A(24,25,26)           119.6375         D2E/DX2 =    0.3125             !
 ! A68   A(4,26,25)            122.2898         D2E/DX2 =    0.2498             !
 ! A69   A(4,26,42)            118.0104         D2E/DX2 =    0.1406             !
 ! A70   A(25,26,42)           119.6998         D2E/DX2 =    0.123              !
 ! D1    D(31,1,13,10)         179.9912         D2E/DX2 =    0.0267             !
 ! D2    D(31,1,13,14)          -0.0074         D2E/DX2 =    0.0198             !
 ! D3    D(38,2,24,23)         179.9934         D2E/DX2 =    0.0267             !
 ! D4    D(38,2,24,25)          -0.0053         D2E/DX2 =    0.0198             !
 ! D5    D(15,3,4,26)          179.998          D2E/DX2 =    0.0157             !
 ! D6    D(4,3,15,14)         -179.9997         D2E/DX2 =    0.0325             !
 ! D7    D(4,3,15,41)           -0.0032         D2E/DX2 =    0.0292             !
 ! D8    D(3,4,26,25)          179.9981         D2E/DX2 =    0.0325             !
 ! D9    D(3,4,26,42)           -0.0013         D2E/DX2 =    0.0292             !
 ! D10   D(7,5,6,11)            -0.001          D2E/DX2 =    0.0089             !
 ! D11   D(7,5,6,30)           179.9986         D2E/DX2 =    0.0083             !
 ! D12   D(29,5,6,11)          179.9993         D2E/DX2 =    0.0088             !
 ! D13   D(29,5,6,30)           -0.0012         D2E/DX2 =    0.0093             !
 ! D14   D(6,5,7,8)              0.0018         D2E/DX2 =    0.0091             !
 ! D15   D(6,5,7,27)          -179.9966         D2E/DX2 =    0.0081             !
 ! D16   D(29,5,7,8)          -179.9985         D2E/DX2 =    0.0081             !
 ! D17   D(29,5,7,27)            0.0031         D2E/DX2 =    0.0088             !
 ! D18   D(5,6,11,9)           179.9968         D2E/DX2 =    0.0062             !
 ! D19   D(5,6,11,12)           -0.0021         D2E/DX2 =    0.0072             !
 ! D20   D(30,6,11,9)           -0.0028         D2E/DX2 =    0.0074             !
 ! D21   D(30,6,11,12)         179.9984         D2E/DX2 =    0.007              !
 ! D22   D(5,7,8,12)             0.0005         D2E/DX2 =    0.0088             !
 ! D23   D(5,7,8,28)          -179.9975         D2E/DX2 =    0.008              !
 ! D24   D(27,7,8,12)          179.9989         D2E/DX2 =    0.0088             !
 ! D25   D(27,7,8,28)            0.0009         D2E/DX2 =    0.0092             !
 ! D26   D(7,8,12,11)           -0.0034         D2E/DX2 =    0.0066             !
 ! D27   D(7,8,12,14)          179.9996         D2E/DX2 =    0.0064             !
 ! D28   D(28,8,12,11)         179.9945         D2E/DX2 =    0.0066             !
 ! D29   D(28,8,12,14)          -0.0024         D2E/DX2 =    0.0072             !
 ! D30   D(11,9,10,13)          -0.003          D2E/DX2 =    0.0077             !
 ! D31   D(11,9,10,32)         179.9988         D2E/DX2 =    0.009              !
 ! D32   D(33,9,10,13)         179.9976         D2E/DX2 =    0.0083             !
 ! D33   D(33,9,10,32)          -0.0006         D2E/DX2 =    0.0096             !
 ! D34   D(10,9,11,6)         -179.9973         D2E/DX2 =    0.0058             !
 ! D35   D(10,9,11,12)           0.0016         D2E/DX2 =    0.0068             !
 ! D36   D(33,9,11,6)            0.0021         D2E/DX2 =    0.0075             !
 ! D37   D(33,9,11,12)        -179.999          D2E/DX2 =    0.0068             !
 ! D38   D(9,10,13,1)         -179.9982         D2E/DX2 =    0.0096             !
 ! D39   D(9,10,13,14)           0.0004         D2E/DX2 =    0.0069             !
 ! D40   D(32,10,13,1)           0.0            D2E/DX2 =    0.0099             !
 ! D41   D(32,10,13,14)        179.9986         D2E/DX2 =    0.0067             !
 ! D42   D(6,11,12,8)            0.0042         D2E/DX2 =    0.0053             !
 ! D43   D(6,11,12,14)        -179.9987         D2E/DX2 =    0.005              !
 ! D44   D(9,11,12,8)         -179.9947         D2E/DX2 =    0.0046             !
 ! D45   D(9,11,12,14)           0.0024         D2E/DX2 =    0.005              !
 ! D46   D(8,12,14,13)         179.992          D2E/DX2 =    0.0048             !
 ! D47   D(8,12,14,15)          -0.0152         D2E/DX2 =    0.005              !
 ! D48   D(11,12,14,13)         -0.0049         D2E/DX2 =    0.0051             !
 ! D49   D(11,12,14,15)        179.9879         D2E/DX2 =    0.006              !
 ! D50   D(1,13,14,12)        -179.9979         D2E/DX2 =    0.0116             !
 ! D51   D(1,13,14,15)           0.0091         D2E/DX2 =    0.0137             !
 ! D52   D(10,13,14,12)          0.0036         D2E/DX2 =    0.006              !
 ! D53   D(10,13,14,15)       -179.9894         D2E/DX2 =    0.0072             !
 ! D54   D(12,14,15,3)         179.9954         D2E/DX2 =    0.0199             !
 ! D55   D(12,14,15,41)         -0.001          D2E/DX2 =    0.0103             !
 ! D56   D(13,14,15,3)          -0.0118         D2E/DX2 =    0.0159             !
 ! D57   D(13,14,15,41)        179.9919         D2E/DX2 =    0.0087             !
 ! D58   D(21,16,17,18)         -0.0007         D2E/DX2 =    0.0089             !
 ! D59   D(21,16,17,35)        179.9996         D2E/DX2 =    0.0088             !
 ! D60   D(34,16,17,18)        179.9989         D2E/DX2 =    0.0083             !
 ! D61   D(34,16,17,35)         -0.0008         D2E/DX2 =    0.0093             !
 ! D62   D(17,16,21,20)         -0.0016         D2E/DX2 =    0.0072             !
 ! D63   D(17,16,21,22)        179.9976         D2E/DX2 =    0.0062             !
 ! D64   D(34,16,21,20)        179.9988         D2E/DX2 =    0.007              !
 ! D65   D(34,16,21,22)         -0.002          D2E/DX2 =    0.0074             !
 ! D66   D(16,17,18,19)          0.0013         D2E/DX2 =    0.0091             !
 ! D67   D(16,17,18,36)       -179.9976         D2E/DX2 =    0.0081             !
 ! D68   D(35,17,18,19)       -179.9989         D2E/DX2 =    0.0081             !
 ! D69   D(35,17,18,36)          0.0021         D2E/DX2 =    0.0088             !
 ! D70   D(17,18,19,20)          0.0003         D2E/DX2 =    0.0088             !
 ! D71   D(17,18,19,37)       -179.9983         D2E/DX2 =    0.008              !
 ! D72   D(36,18,19,20)        179.9993         D2E/DX2 =    0.0088             !
 ! D73   D(36,18,19,37)          0.0007         D2E/DX2 =    0.0092             !
 ! D74   D(18,19,20,21)         -0.0025         D2E/DX2 =    0.0066             !
 ! D75   D(18,19,20,25)        179.9998         D2E/DX2 =    0.0064             !
 ! D76   D(37,19,20,21)        179.9961         D2E/DX2 =    0.0066             !
 ! D77   D(37,19,20,25)         -0.0017         D2E/DX2 =    0.0072             !
 ! D78   D(19,20,21,16)          0.0031         D2E/DX2 =    0.0053             !
 ! D79   D(19,20,21,22)       -179.9961         D2E/DX2 =    0.0046             !
 ! D80   D(25,20,21,16)       -179.9991         D2E/DX2 =    0.005              !
 ! D81   D(25,20,21,22)          0.0017         D2E/DX2 =    0.005              !
 ! D82   D(19,20,25,24)        179.9942         D2E/DX2 =    0.0048             !
 ! D83   D(19,20,25,26)         -0.0107         D2E/DX2 =    0.005              !
 ! D84   D(21,20,25,24)         -0.0035         D2E/DX2 =    0.0051             !
 ! D85   D(21,20,25,26)        179.9916         D2E/DX2 =    0.006              !
 ! D86   D(16,21,22,23)       -179.9981         D2E/DX2 =    0.0058             !
 ! D87   D(16,21,22,39)          0.0014         D2E/DX2 =    0.0075             !
 ! D88   D(20,21,22,23)          0.001          D2E/DX2 =    0.0068             !
 ! D89   D(20,21,22,39)       -179.9994         D2E/DX2 =    0.0068             !
 ! D90   D(21,22,23,24)         -0.0021         D2E/DX2 =    0.0077             !
 ! D91   D(21,22,23,40)        179.9991         D2E/DX2 =    0.009              !
 ! D92   D(39,22,23,24)        179.9984         D2E/DX2 =    0.0083             !
 ! D93   D(39,22,23,40)         -0.0004         D2E/DX2 =    0.0096             !
 ! D94   D(22,23,24,2)        -179.9986         D2E/DX2 =    0.0096             !
 ! D95   D(22,23,24,25)          0.0002         D2E/DX2 =    0.0069             !
 ! D96   D(40,23,24,2)           0.0003         D2E/DX2 =    0.0099             !
 ! D97   D(40,23,24,25)        179.9991         D2E/DX2 =    0.0067             !
 ! D98   D(2,24,25,20)        -179.9987         D2E/DX2 =    0.0116             !
 ! D99   D(2,24,25,26)           0.0061         D2E/DX2 =    0.0137             !
 ! D100  D(23,24,25,20)          0.0026         D2E/DX2 =    0.006              !
 ! D101  D(23,24,25,26)       -179.9927         D2E/DX2 =    0.0072             !
 ! D102  D(20,25,26,4)         179.9985         D2E/DX2 =    0.0199             !
 ! D103  D(20,25,26,42)         -0.0022         D2E/DX2 =    0.0104             !
 ! D104  D(24,25,26,4)          -0.0064         D2E/DX2 =    0.0159             !
 ! D105  D(24,25,26,42)        179.9929         D2E/DX2 =    0.0087             !
 --------------------------------------------------------------------------------
 Trust Radius=3.00D-01 FncErr=1.00D-07 GrdErr=1.00D-06 EigMax=2.50D+02 EigMin=1.00D-04
 Number of steps in this run=    230 maximum allowed number of steps=    252.
 GradGradGradGradGradGradGradGradGradGradGradGradGradGradGradGradGradGrad

                          Input orientation:                          
 ---------------------------------------------------------------------
 Center     Atomic      Atomic             Coordinates (Angstroms)
 Number     Number       Type             X           Y           Z
 ---------------------------------------------------------------------
      1          8           0        2.412586   -1.095721   -1.099034
      2          8           0       -3.440102    1.270093    0.170256
      3          7           0        0.015908   -0.347740   -0.540983
      4          7           0       -1.043636    0.522574   -0.387213
      5          6           0       -0.162377   -6.701741    0.603015
      6          6           0        1.089739   -6.339382    0.181750
      7          6           0       -1.159103   -5.715919    0.719271
      8          6           0       -0.891946   -4.403608    0.417017
      9          6           0        2.695775   -4.629450   -0.572615
     10          6           0        3.006423   -3.343438   -0.882738
     11          6           0        1.392026   -4.996235   -0.135860
     12          6           0        0.391380   -3.994509   -0.021283
     13          6           0        2.023559   -2.326869   -0.775843
     14          6           0        0.724034   -2.629472   -0.351391
     15          6           0       -0.258000   -1.575914   -0.251338
     16          6           0       -2.118085    6.514093   -1.109929
     17          6           0       -0.865863    6.876770   -1.530600
     18          6           0        0.131173    5.891203   -1.646369
     19          6           0       -0.135804    4.578817   -1.344288
     20          6           0       -1.419258    4.169374   -0.906674
     21          6           0       -2.420189    5.170865   -0.792479
     22          6           0       -3.724024    4.803778   -0.356228
     23          6           0       -4.034481    3.517699   -0.046176
     24          6           0       -3.051337    2.501376   -0.152752
     25          6           0       -1.751771    2.804250   -0.576779
     26          6           0       -0.769688    1.750742   -0.676825
     27          1           0       -2.153840   -5.993971    1.052313
     28          1           0       -1.691164   -3.680531    0.521869
     29          1           0       -0.386497   -7.734916    0.844905
     30          1           0        1.875831   -7.082503    0.084177
     31          1           0        1.635500   -0.485878   -0.981333
     32          1           0        3.995156   -3.051325   -1.216342
     33          1           0        3.450366   -5.406151   -0.655373
     34          1           0       -2.904405    7.257018   -1.012701
     35          1           0       -0.641892    7.910001   -1.772387
     36          1           0        1.126023    6.169523   -1.978849
     37          1           0        0.663676    3.855965   -1.448684
     38          1           0       -2.662820    0.660555    0.052523
     39          1           0       -4.478835    5.580299   -0.273783
     40          1           0       -5.023261    3.225347    0.287079
     41          1           0       -1.268834   -1.810237    0.078498
     42          1           0        0.241168    1.985108   -1.006564
 ---------------------------------------------------------------------
                    Distance matrix (angstroms):
                    1          2          3          4          5
     1  O    0.000000
     2  O    6.439110   0.000000
     3  N    2.571957   3.881656   0.000000
     4  N    3.882144   2.571499   1.379755   0.000000
     5  C    6.399599   8.630232   6.458626   7.344924   0.000000
     6  C    5.557546   8.855716   6.129864   7.208429   1.369877
     7  C    6.116325   7.369446   5.637928   6.336911   1.406707
     8  C    4.915329   6.224538   4.265212   4.993703   2.418322
     9  C    3.583930   8.544323   5.051309   6.368745   3.720958
    10  C    2.334879   7.996946   4.246667   5.620905   4.850459
    11  C    4.145269   7.918967   4.864805   6.037622   2.422986
    12  C    3.694562   6.514060   3.702700   4.753652   2.832932
    13  C    1.330985   6.609450   2.828917   4.204527   5.081247
    14  C    2.400536   5.728766   2.396600   3.614047   4.275511
    15  C    2.842746   4.289904   1.291252   2.244847   5.197419
    16  C    8.856431   5.557530   7.208494   6.129850  13.469122
    17  C    8.631054   6.399567   7.345095   6.458696  13.763110
    18  C    7.370313   6.116273   6.337158   5.638069  12.795630
    19  C    6.225337   4.915270   4.993924   4.265355  11.447431
    20  C    6.514695   3.694512   4.753709   3.702713  11.047174
    21  C    7.919583   4.145251   6.037617   4.864746  12.165686
    22  C    8.544813   3.583954   6.368624   5.051154  12.082320
    23  C    7.997301   2.334922   5.620685   4.246438  10.947676
    24  C    6.609767   1.330989   4.204305   2.828691   9.675467
    25  C    5.729258   2.400450   3.614002   2.396547   9.709890
    26  C    4.290394   2.842478   2.244825   1.291247   8.570373
    27  H    7.033733   7.429611   6.255104   6.765364   2.160725
    28  H    5.113642   5.262232   3.892460   4.348771   3.386959
    29  H    7.462753   9.532568   7.526818   8.374729   1.084523
    30  H    6.126145   9.901132   7.014782   8.159822   2.137396
    31  H    0.994799   5.492843   1.684063   2.923649   6.661792
    32  H    2.518467   8.710934   4.857972   6.232947   5.824146
    33  H    4.455742   9.629769   6.115236   7.444310   4.039060
    34  H    9.901823   6.126144   8.159846   7.014730  14.316991
    35  H    9.533429   7.462722   8.374924   7.526898  14.811330
    36  H    7.430551   7.033674   6.765688   6.255299  13.190733
    37  H    5.263092   5.113580   4.349099   3.892702  10.786890
    38  H    5.492753   0.994769   2.923096   1.683497   7.794785
    39  H    9.630263   4.455784   7.444176   6.115067  13.047954
    40  H    8.711186   2.518543   6.232645   4.857681  11.057807
    41  H    3.930645   3.769782   2.042845   2.389479   5.042438
    42  H    3.770293   3.930382   2.389495   2.042871   8.843921
                    6          7          8          9         10
     6  C    0.000000
     7  C    2.394771   0.000000
     8  C    2.780224   1.372913   0.000000
     9  C    2.464200   4.208262   3.728554   0.000000
    10  C    3.712477   5.054374   4.243890   1.358862   0.000000
    11  C    1.412904   2.785221   2.423512   1.423041   2.428135
    12  C    2.455068   2.432215   1.416473   2.453029   2.829213
    13  C    4.229570   4.883683   3.773053   2.407292   1.418048
    14  C    3.765821   3.770766   2.519802   2.817199   2.449770
    15  C    4.969365   4.346690   2.973960   4.260526   3.765536
    16  C   13.310537  12.403178  11.091942  12.150741  11.112296
    17  C   13.469343  12.795458  11.447307  12.082885  10.948378
    18  C   12.403551  11.915802  10.549287  10.881832   9.701999
    19  C   11.092241  10.549265   9.184656   9.664652   8.535147
    20  C   10.858807  10.021497   8.690583   9.719280   8.719494
    21  C   12.072883  11.063354   9.770821  11.057468  10.097011
    22  C   12.150381  10.881156   9.664085  11.412556  10.580797
    23  C   11.111779   9.701207   8.534470  10.580620   9.866578
    24  C    9.768286   8.477318   7.257163   9.168111   8.449331
    25  C    9.604976   8.638535   7.326674   8.662597   7.779980
    26  C    8.345341   7.606034   6.251997   7.261345   6.344453
    27  H    3.376092   1.085234   2.127259   5.293494   6.115395
    28  H    3.862460   2.113022   1.082859   4.619911   4.914659
    29  H    2.136952   2.165422   3.396495   4.599313   5.812205
    30  H    1.086135   3.388469   3.866245   2.668548   4.024148
    31  H    5.992839   6.168889   4.867440   4.296559   3.170931
    32  H    4.605152   6.116620   5.327316   2.143188   1.083612
    33  H    2.672873   4.820042   4.583752   1.086058   2.122161
    34  H   14.221181  13.203898  11.919073  13.147008  12.137728
    35  H   14.486619  13.861514  12.509236  13.031397  11.863456
    36  H   12.694180  12.400217  11.027397  11.002701   9.758780
    37  H   10.333680   9.982160   8.609376   8.769218   7.592112
    38  H    7.943395   6.585221   5.377230   7.555759   7.003355
    39  H   13.164168  11.815723  10.631151  12.482119  11.663318
    40  H   11.351824   9.750115   8.676728  11.046286  10.439982
    41  H    5.107512   3.959417   2.642388   4.908160   4.642467
    42  H    8.451585   8.015303   6.642757   7.068648   6.004612
                   11         12         13         14         15
    11  C    0.000000
    12  C    1.420520   0.000000
    13  C    2.816722   2.452425   0.000000
    14  C    2.468649   1.443244   1.400176   0.000000
    15  C    3.799278   2.514800   2.458566   1.443741   0.000000
    16  C   12.073000  10.858788   9.768697   9.605093   8.345377
    17  C   12.166002  11.047326   9.676022   9.710147   8.570524
    18  C   11.063800  10.021771   8.477950   8.638886   7.606274
    19  C    9.771191   8.690809   7.257718   7.326977   6.252214
    20  C    9.617996   8.409001   7.353318   7.150270   5.897993
    21  C   10.878146   9.617887   8.715687   8.421756   7.105415
    22  C   11.057250   9.718981   9.168256   8.662475   7.261185
    23  C   10.096637   8.719067   8.449333   7.779739   6.344194
    24  C    8.715385   7.352966   7.032408   6.373264   4.943354
    25  C    8.421724   7.150160   6.373471   5.975429   4.639300
    26  C    7.105444   5.897942   4.943576   4.639331   3.392566
    27  H    3.870452   3.410074   5.851534   4.644610   4.981259
    28  H    3.416101   2.174991   4.161205   2.774976   2.661056
    29  H    3.409607   3.917400   6.138580   5.360033   6.257121
    30  H    2.152905   3.427889   4.835029   4.620155   5.915093
    31  H    4.595369   3.844479   1.892634   2.413005   2.303565
    32  H    3.424383   3.912156   2.146176   3.409741   4.604064
    33  H    2.162103   3.428148   3.395920   3.903234   5.346582
    34  H   13.014237  11.766136  10.779231  10.552043   9.252234
    35  H   13.167611  12.076894  10.625029  10.722196   9.614757
    36  H   11.319961  10.376864   8.627947   8.957262   8.055533
    37  H    8.978610   7.983831   6.366273   6.577887   5.638123
    38  H    6.962509   5.568052   5.618989   4.739009   3.298073
    39  H   12.097483  10.745217  10.249707   9.719888   8.308269
    40  H   10.436915   9.029936   9.034079   8.229093   6.785994
    41  H    4.156526   2.745416   3.440445   2.197152   1.088800
    42  H    7.128937   6.062108   4.671541   4.685804   3.674290
                   16         17         18         19         20
    16  C    0.000000
    17  C    1.369876   0.000000
    18  C    2.394770   1.406708   0.000000
    19  C    2.780226   2.418324   1.372912   0.000000
    20  C    2.455072   2.832936   2.432218   1.416476   0.000000
    21  C    1.412906   2.422987   2.785223   2.423516   1.420524
    22  C    2.464200   3.720959   4.208266   3.728565   2.453040
    23  C    3.712482   4.850466   5.054386   4.243907   2.829227
    24  C    4.229544   5.081224   4.883665   3.773042   2.452406
    25  C    3.765816   4.275515   3.770780   2.519823   1.443246
    26  C    4.969434   5.197533   4.346836   2.974109   2.514867
    27  H   12.693630  13.190387  12.400062  11.027239  10.376455
    28  H   10.333217  10.786582   9.981996   8.609210   7.983462
    29  H   14.486340  14.811286  13.861657  12.509333  12.076703
    30  H   14.221275  14.317322  13.204380  11.919461  11.766228
    31  H    7.943899   7.795326   6.585775   5.377768   5.568527
    32  H   11.352544  11.058722   9.751107   8.677572   9.030519
    33  H   13.164592  13.048602  11.816485  10.631783  10.745561
    34  H    1.086135   2.137395   3.388469   3.866247   3.427893
    35  H    2.136950   1.084523   2.165424   3.396496   3.917404
    36  H    3.376091   2.160726   1.085234   2.127257   3.410076
    37  H    3.862460   3.386955   2.113015   1.082858   2.174998
    38  H    5.992657   6.661581   6.168655   4.867203   3.844257
    39  H    2.672874   4.039059   4.820045   4.583761   3.428158
    40  H    4.605164   5.824158   6.116633   5.327333   3.912169
    41  H    8.451512   8.843963   8.015445   6.642897   6.062090
    42  H    5.107687   5.042668   3.959675   2.642630   2.745544
                   21         22         23         24         25
    21  C    0.000000
    22  C    1.423044   0.000000
    23  C    2.428140   1.358866   0.000000
    24  C    2.816694   2.407273   1.418041   0.000000
    25  C    2.468639   2.817186   2.449758   1.400144   0.000000
    26  C    3.799312   4.260507   3.765465   2.458461   1.443737
    27  H   11.319354  11.001857   9.757835   8.627202   8.956802
    28  H    8.978095   8.768527   7.591332   6.365623   6.577468
    29  H   13.167237  13.030759  11.862679  10.624424  10.721902
    30  H   13.014198  13.146711  12.137259  10.778862  10.551978
    31  H    6.962975   7.556171   7.003701   5.619313   4.739432
    32  H   10.437467  11.046637  10.440135   9.034200   8.229457
    33  H   12.097747  12.482148  11.663154  10.249574   9.720036
    34  H    2.152904   2.668543   4.024146   4.835001   4.620145
    35  H    3.409608   4.599312   5.812210   6.138556   5.360038
    36  H    3.870454   5.293498   6.115407   5.851519   4.644627
    37  H    3.416108   4.619927   4.914685   4.161211   2.775015
    38  H    4.595193   4.296456   3.170878   1.892540   2.412770
    39  H    2.162106   1.086057   2.122163   3.395904   3.903221
    40  H    3.424393   2.143200   1.083612   2.146176   3.409724
    41  H    7.128815   7.068391   6.004269   4.671275   4.685735
    42  H    4.156646   4.908217   4.642451   3.440366   2.197161
                   26         27         28         29         30
    26  C    0.000000
    27  H    8.055208   0.000000
    28  H    5.637793   2.418149   0.000000
    29  H    9.614583   2.489460   4.271364   0.000000
    30  H    9.252248   4.284908   4.948580   2.474364   0.000000
    31  H    3.298503   6.988126   4.850991   7.744170   6.686444
    32  H    6.786358   7.184436   5.979257   6.736738   4.736379
    33  H    8.308455   5.888026   5.549684   4.732388   2.415833
    34  H    5.915142  13.431915  11.111113  15.314982  15.155054
    35  H    6.257241  14.268334  11.861915  15.864390  15.315382
    36  H    4.981427  12.957470  10.545790  14.268662  13.432590
    37  H    2.661252  10.545835   8.138005  11.862206  11.111663
    38  H    2.303129   6.748434   4.473190   8.734612   8.975260
    39  H    5.346562  11.879725   9.703975  13.974750  14.172384
    40  H    4.603961   9.685814   7.671320  11.913779  12.405257
    41  H    3.674266   4.385793   1.967978   6.038851   6.138871
    42  H    1.088800   8.581418   6.178145   9.914674   9.278114
                   31         32         33         34         35
    31  H    0.000000
    32  H    3.493526   0.000000
    33  H    5.254434   2.481268   0.000000
    34  H    8.975754  12.405940  14.172743   0.000000
    35  H    8.735163  11.914784  13.975486   2.474363   0.000000
    36  H    6.748997   9.686969  11.880673   4.284908   2.489461
    37  H    4.473752   7.672248   9.704730   4.948580   4.271358
    38  H    4.567135   7.727659   8.641590   6.686284   7.743960
    39  H    8.642003  12.132678  13.554332   2.415827   4.732384
    40  H    7.727947  11.090028  12.132326   4.736386   6.736749
    41  H    3.363380   5.561160   5.978295   9.277981   9.914730
    42  H    2.837352   6.285068   8.065544   6.139031   6.039093
                   36         37         38         39         40
    36  H    0.000000
    37  H    2.418138   0.000000
    38  H    6.987885   4.850757   0.000000
    39  H    5.888028   5.549698   5.254357   0.000000
    40  H    7.184449   5.979282   3.493545   2.481283   0.000000
    41  H    8.581643   6.178408   2.837021   8.065248   6.284611
    42  H    4.386073   1.968271   3.362923   5.978361   5.561108
                   41         42
    41  H    0.000000
    42  H    4.226359   0.000000
 Stoichiometry    C22H16N2O2
 Framework group  C1[X(C22H16N2O2)]
 Deg. of freedom   120
 Full point group                 C1      NOp   1
 Largest Abelian subgroup         C1      NOp   1
 Largest concise Abelian subgroup C1      NOp   1
                         Standard orientation:                         
 ---------------------------------------------------------------------
 Center     Atomic      Atomic             Coordinates (Angstroms)
 Number     Number       Type             X           Y           Z
 ---------------------------------------------------------------------
      1          8           0        1.899034   -2.600232    0.000244
      2          8           0       -1.898621    2.599763    0.000284
      3          7           0        0.558244   -0.405410   -0.000026
      4          7           0       -0.558284    0.405201   -0.000015
      5          6           0        6.679658    1.654236   -0.000253
      6          6           0        6.649137    0.284699    0.000079
      7          6           0        5.467162    2.367452   -0.000566
      8          6           0        4.261976    1.709868   -0.000506
      9          6           0        5.401469   -1.840297    0.000408
     10          6           0        4.232971   -2.533923    0.000407
     11          6           0        5.423035   -0.417419    0.000131
     12          6           0        4.194091    0.295023   -0.000118
     13          6           0        2.994180   -1.843809    0.000192
     14          6           0        2.954530   -0.444195   -0.000031
     15          6           0        1.680030    0.234065   -0.000016
     16          6           0       -6.649232   -0.284304    0.000051
     17          6           0       -6.679977   -1.653835   -0.000261
     18          6           0       -5.467596   -2.367250   -0.000535
     19          6           0       -4.262302   -1.709865   -0.000468
     20          6           0       -4.194183   -0.295028   -0.000114
     21          6           0       -5.423014    0.417616    0.000114
     22          6           0       -5.401226    1.840493    0.000388
     23          6           0       -4.232616    2.533937    0.000415
     24          6           0       -2.993955    1.843603    0.000212
     25          6           0       -2.954517    0.444015   -0.000023
     26          6           0       -1.680050   -0.234300   -0.000066
     27          1           0        5.481881    3.452585   -0.000886
     28          1           0        3.355163    2.301708   -0.000798
     29          1           0        7.624955    2.185841   -0.000279
     30          1           0        7.572043   -0.287957    0.000302
     31          1           0        1.107779   -1.997289    0.000223
     32          1           0        4.203076   -3.617123    0.000598
     33          1           0        6.348888   -2.371257    0.000613
     34          1           0       -7.572043    0.288503    0.000250
     35          1           0       -7.625361   -2.185285   -0.000300
     36          1           0       -5.482492   -3.452381   -0.000822
     37          1           0       -3.355594   -2.301863   -0.000717
     38          1           0       -1.107606    1.996555    0.000233
     39          1           0       -6.348560    2.371604    0.000569
     40          1           0       -4.202535    3.617132    0.000608
     41          1           0        1.648151    1.322398   -0.000055
     42          1           0       -1.648198   -1.322633   -0.000132
 ---------------------------------------------------------------------
 Rotational constants (GHZ):           0.5516580           0.0765620           0.0672313
 Standard basis: 6-31G(d,p) (6D, 7F)
 There are   470 symmetry adapted cartesian basis functions of A   symmetry.
 There are   470 symmetry adapted basis functions of A   symmetry.
   470 basis functions,   840 primitive gaussians,   470 cartesian basis functions
    89 alpha electrons       89 beta electrons
       nuclear repulsion energy      1998.0618316000 Hartrees.
 NAtoms=   42 NActive=   42 NUniq=   42 SFac= 1.00D+00 NAtFMM=   60 NAOKFM=F Big=F
 Integral buffers will be    131072 words long.
 Raffenetti 1 integral format.
 Two-electron integral symmetry is turned on.
 One-electron integrals computed using PRISM.
 NBasis=   470 RedAO= T EigKep=  2.35D-04  NBF=   470
 NBsUse=   470 1.00D-06 EigRej= -1.00D+00 NBFU=   470
 Initial guess from the checkpoint file:  "TD_PY101_CAM-B3LYP.chk"
 B after Tr=     0.000000    0.000000   -0.000000
         Rot=    1.000000   -0.000000    0.000000    0.000000 Ang=   0.00 deg.
 Requested convergence on RMS density matrix=1.00D-08 within 128 cycles.
 Requested convergence on MAX density matrix=1.00D-06.
 Requested convergence on             energy=1.00D-06.
 No special actions if energy rises.
 SCF Done:  E(RCAM-B3LYP) =  -1107.37050348     A.U. after    1 cycles
            NFock=  1  Conv=0.39D-08     -V/T= 2.0089
 DoSCS=F DFT=T ScalE2(SS,OS)=  1.000000  1.000000
 ExpMin= 1.61D-01 ExpMax= 5.48D+03 ExpMxC= 8.25D+02 IAcc=3 IRadAn=         5 AccDes= 0.00D+00
 HarFok:  IExCor=  205 AccDes= 0.00D+00 IRadAn=         5 IDoV=-2 UseB2=F ITyADJ=14
 ICtDFT= 12500011 ScaDFX=  1.000000  1.000000  1.000000  1.000000
 GSVD:  LWork=        -884 too small for GESVD, short by        3770 words or        3770 for optimal perf.
 Range of M.O.s used for correlation:    27   470
 NBasis=   470 NAE=    89 NBE=    89 NFC=    26 NFV=     0
 NROrb=    444 NOA=    63 NOB=    63 NVA=   381 NVB=   381
 Orbital symmetries:
       Occupied  (A) (A) (A) (A) (A) (A) (A) (A) (A) (A) (A) (A)
                 (A) (A) (A) (A) (A) (A) (A) (A) (A) (A) (A) (A)
                 (A) (A) (A) (A) (A) (A) (A) (A) (A) (A) (A) (A)
                 (A) (A) (A) (A) (A) (A) (A) (A) (A) (A) (A) (A)
                 (A) (A) (A) (A) (A) (A) (A) (A) (A) (A) (A) (A)
                 (A) (A) (A) (A) (A) (A) (A) (A) (A) (A) (A) (A)
                 (A) (A) (A) (A) (A) (A) (A) (A) (A) (A) (A) (A)
                 (A) (A) (A) (A) (A)
       Virtual   (A) (A) (A) (A) (A) (A) (A) (A) (A) (A) (A) (A)
                 (A) (A) (A) (A) (A) (A) (A) (A) (A) (A) (A) (A)
                 (A) (A) (A) (A) (A) (A) (A) (A) (A) (A) (A) (A)
                 (A) (A) (A) (A) (A) (A) (A) (A) (A) (A) (A) (A)
                 (A) (A) (A) (A) (A) (A) (A) (A) (A) (A) (A) (A)
                 (A) (A) (A) (A) (A) (A) (A) (A) (A) (A) (A) (A)
                 (A) (A) (A) (A) (A) (A) (A) (A) (A) (A) (A) (A)
                 (A) (A) (A) (A) (A) (A) (A) (A) (A) (A) (A) (A)
                 (A) (A) (A) (A) (A) (A) (A) (A) (A) (A) (A) (A)
                 (A) (A) (A) (A) (A) (A) (A) (A) (A) (A) (A) (A)
                 (A) (A) (A) (A) (A) (A) (A) (A) (A) (A) (A) (A)
                 (A) (A) (A) (A) (A) (A) (A) (A) (A) (A) (A) (A)
                 (A) (A) (A) (A) (A) (A) (A) (A) (A) (A) (A) (A)
                 (A) (A) (A) (A) (A) (A) (A) (A) (A) (A) (A) (A)
                 (A) (A) (A) (A) (A) (A) (A) (A) (A) (A) (A) (A)
                 (A) (A) (A) (A) (A) (A) (A) (A) (A) (A) (A) (A)
                 (A) (A) (A) (A) (A) (A) (A) (A) (A) (A) (A) (A)
                 (A) (A) (A) (A) (A) (A) (A) (A) (A) (A) (A) (A)
                 (A) (A) (A) (A) (A) (A) (A) (A) (A) (A) (A) (A)
                 (A) (A) (A) (A) (A) (A) (A) (A) (A) (A) (A) (A)
                 (A) (A) (A) (A) (A) (A) (A) (A) (A) (A) (A) (A)
                 (A) (A) (A) (A) (A) (A) (A) (A) (A) (A) (A) (A)
                 (A) (A) (A) (A) (A) (A) (A) (A) (A) (A) (A) (A)
                 (A) (A) (A) (A) (A) (A) (A) (A) (A) (A) (A) (A)
                 (A) (A) (A) (A) (A) (A) (A) (A) (A) (A) (A) (A)
                 (A) (A) (A) (A) (A) (A) (A) (A) (A) (A) (A) (A)
                 (A) (A) (A) (A) (A) (A) (A) (A) (A) (A) (A) (A)
                 (A) (A) (A) (A) (A) (A) (A) (A) (A) (A) (A) (A)
                 (A) (A) (A) (A) (A) (A) (A) (A) (A) (A) (A) (A)
                 (A) (A) (A) (A) (A) (A) (A) (A) (A) (A) (A) (A)
                 (A) (A) (A) (A) (A) (A) (A) (A) (A) (A) (A) (A)
                 (A) (A) (A) (A) (A) (A) (A) (A) (A)
    16 initial guesses have been made.
 Convergence on wavefunction:    0.000001000000000
 Iteration     1 Dimension    16 NMult     0 NNew     16
 CISAX will form    16 AO SS matrices at one time.
 New state      3 was old state      8
 Iteration     2 Dimension    24 NMult    16 NNew      8
 Iteration     3 Dimension    32 NMult    24 NNew      8
 Iteration     4 Dimension    40 NMult    32 NNew      8
 Iteration     5 Dimension    48 NMult    40 NNew      8
 Iteration     6 Dimension    56 NMult    48 NNew      8
 Iteration     7 Dimension    64 NMult    56 NNew      8
 Iteration     8 Dimension    72 NMult    64 NNew      8
 Iteration     9 Dimension    80 NMult    72 NNew      8
 Iteration    10 Dimension    88 NMult    80 NNew      8
 Iteration    11 Dimension    94 NMult    88 NNew      6
 Iteration    12 Dimension    98 NMult    94 NNew      4
 Iteration    13 Dimension   102 NMult    98 NNew      4
 Iteration    14 Dimension   106 NMult   102 NNew      4
 ***********************************************************************
 Excited states from <AA,BB:AA,BB> singles matrix:
 ***********************************************************************
 
 Ground to excited state transition densities written to RWF  633
 Ground to excited state transition electric dipole moments (Au):
       state          X           Y           Z        Dip. S.      Osc.
         1        -3.3432      0.7057     -0.0000     11.6751      0.9676
         2         0.0002      0.0000      0.0002      0.0000      0.0000
         3        -0.0000     -0.0000     -0.0761      0.0058      0.0006
         4         1.3498      0.7802      0.0000      2.4307      0.2616
 Ground to excited state transition velocity dipole moments (Au):
       state          X           Y           Z        Dip. S.      Osc.
         1         0.4113     -0.0831      0.0000      0.1760      0.9441
         2        -0.0000     -0.0000     -0.0000      0.0000      0.0000
         3         0.0000      0.0000      0.0300      0.0009      0.0038
         4        -0.2077     -0.1223      0.0000      0.0581      0.2400
 Ground to excited state transition magnetic dipole moments (Au):
       state          X           Y           Z
         1         0.0000     -0.0002      0.0001
         2        -0.0000     -0.0000      1.8183
         3        -0.0001     -0.0000      0.0004
         4         0.0001     -0.0004     -0.0001
 Ground to excited state transition velocity quadrupole moments (Au):
       state          XX          YY          ZZ          XY          XZ          YZ
         1        -0.0000      0.0000      0.0000     -0.0000      0.0001     -0.0002
         2        -1.5281     -0.5582      0.0119      1.1054     -0.0000     -0.0000
         3         0.0001     -0.0001     -0.0000      0.0003      0.0000     -0.0000
         4         0.0001      0.0000     -0.0000     -0.0001      0.0001      0.0000
 <0|del|b> * <b|rxdel|0> + <0|del|b> * <b|delr+rdel|0>
 Rotatory Strengths (R) in cgs (10**-40 erg-esu-cm/Gauss)
       state          XX          YY          ZZ    R(velocity)    E-M Angle
         1         0.0682     -0.1838      0.2006      0.0283       90.00
         2        -0.2338     -0.0570      0.0000     -0.0969       90.00
         3         0.0477      0.0107     -0.0000      0.0195       90.00
         4         0.1344     -0.0412      0.0425      0.0452       90.00
 1/2[<0|r|b>*<b|rxdel|0> + (<0|rxdel|b>*<b|r|0>)*]
 Rotatory Strengths (R) in cgs (10**-40 erg-esu-cm/Gauss)
       state          XX          YY          ZZ     R(length)
         1         0.0004      0.0893      0.0000      0.0299
         2         0.0000      0.0000     -0.2760     -0.0920
         3        -0.0000     -0.0000      0.0233      0.0078
         4        -0.0559      0.1947      0.0000      0.0462
  1/2[<0|del|b>*<b|r|0> + (<0|r|b>*<b|del|0>)*] (Au)
       state          X           Y           Z        Dip. S.   Osc.(frdel)
         1        -1.3750     -0.0586     -0.0000      1.4336      0.9557
         2        -0.0000     -0.0000     -0.0000      0.0000      0.0000
         3        -0.0000     -0.0000     -0.0023      0.0023      0.0015
         4        -0.2804     -0.0954      0.0000      0.3758      0.2506

 Excitation energies and oscillator strengths:
 
 Excited State   1:      Singlet-A      3.3828 eV  366.51 nm  f=0.9676  <S**2>=0.000
      88 -> 91        -0.15462
      89 -> 90         0.67582
 This state for optimization and/or second-order correction.
 Total Energy, E(TD-HF/TD-DFT) =  -1107.24618667    
 Copying the excited state density for this state as the 1-particle RhoCI density.
 
 Excited State   2:      Singlet-A      4.0662 eV  304.92 nm  f=0.0000  <S**2>=0.000
      86 -> 90         0.10715
      87 -> 91        -0.13790
      88 -> 90         0.57454
      89 -> 91        -0.30844
      89 -> 93         0.10872
 
 Excited State   3:      Singlet-A      4.2842 eV  289.40 nm  f=0.0006  <S**2>=0.000
      85 -> 90         0.66628
      85 -> 92         0.18045
 
 Excited State   4:      Singlet-A      4.3931 eV  282.22 nm  f=0.2616  <S**2>=0.000
      86 -> 91        -0.27383
      87 -> 90         0.54009
      88 -> 91        -0.15245
      88 -> 93         0.15316
      89 -> 94        -0.23009
 SavETr:  write IOETrn=   770 NScale= 10 NData=  16 NLR=1 NState=    4 LETran=      82.
          IDoAtm=111111111111111111111111111111111111111111
          Differentiating once with respect to electric field.
                with respect to dipole field.
          Differentiating once with respect to nuclear coordinates.
          There are     1 degrees of freedom in the 1st order CPHF.  IDoFFX=0 NUNeed=     1.
 LinEq1:  Iter=  0 NonCon=     1 RMS=2.03D-03 Max=1.88D-01 NDo=     1
 AX will form     1 AO Fock derivatives at one time.
 LinEq1:  Iter=  1 NonCon=     1 RMS=9.61D-04 Max=7.97D-02 NDo=     1
 LinEq1:  Iter=  2 NonCon=     1 RMS=3.41D-04 Max=2.05D-02 NDo=     1
 LinEq1:  Iter=  3 NonCon=     1 RMS=1.60D-04 Max=7.33D-03 NDo=     1
 LinEq1:  Iter=  4 NonCon=     1 RMS=9.87D-05 Max=6.28D-03 NDo=     1
 LinEq1:  Iter=  5 NonCon=     1 RMS=4.98D-05 Max=2.40D-03 NDo=     1
 LinEq1:  Iter=  6 NonCon=     1 RMS=2.49D-05 Max=9.71D-04 NDo=     1
 LinEq1:  Iter=  7 NonCon=     1 RMS=1.43D-05 Max=1.08D-03 NDo=     1
 LinEq1:  Iter=  8 NonCon=     1 RMS=5.58D-06 Max=2.57D-04 NDo=     1
 LinEq1:  Iter=  9 NonCon=     1 RMS=2.71D-06 Max=1.04D-04 NDo=     1
 LinEq1:  Iter= 10 NonCon=     1 RMS=1.20D-06 Max=5.23D-05 NDo=     1
 LinEq1:  Iter= 11 NonCon=     1 RMS=6.45D-07 Max=3.65D-05 NDo=     1
 LinEq1:  Iter= 12 NonCon=     1 RMS=3.05D-07 Max=1.36D-05 NDo=     1
 LinEq1:  Iter= 13 NonCon=     1 RMS=1.40D-07 Max=6.99D-06 NDo=     1
 LinEq1:  Iter= 14 NonCon=     1 RMS=9.22D-08 Max=5.50D-06 NDo=     1
 LinEq1:  Iter= 15 NonCon=     1 RMS=4.14D-08 Max=1.70D-06 NDo=     1
 LinEq1:  Iter= 16 NonCon=     1 RMS=1.66D-08 Max=6.21D-07 NDo=     1
 LinEq1:  Iter= 17 NonCon=     1 RMS=9.39D-09 Max=4.04D-07 NDo=     1
 LinEq1:  Iter= 18 NonCon=     1 RMS=3.01D-09 Max=1.32D-07 NDo=     1
 LinEq1:  Iter= 19 NonCon=     1 RMS=8.76D-10 Max=4.87D-08 NDo=     1
 LinEq1:  Iter= 20 NonCon=     1 RMS=4.56D-10 Max=1.51D-08 NDo=     1
 LinEq1:  Iter= 21 NonCon=     1 RMS=1.75D-10 Max=7.52D-09 NDo=     1
 LinEq1:  Iter= 22 NonCon=     1 RMS=9.25D-11 Max=3.53D-09 NDo=     1
 LinEq1:  Iter= 23 NonCon=     1 RMS=4.60D-11 Max=1.74D-09 NDo=     1
 LinEq1:  Iter= 24 NonCon=     0 RMS=1.93D-11 Max=5.35D-10 NDo=     1
 Linear equations converged to 1.000D-10 1.000D-09 after    24 iterations.
 End of Minotr F.D. properties file   721 does not exist.
 End of Minotr F.D. properties file   722 does not exist.
 End of Minotr F.D. properties file   788 does not exist.

 **********************************************************************

            Population analysis using the SCF density.

 **********************************************************************

 Orbital symmetries:
       Occupied  (A) (A) (A) (A) (A) (A) (A) (A) (A) (A) (A) (A)
                 (A) (A) (A) (A) (A) (A) (A) (A) (A) (A) (A) (A)
                 (A) (A) (A) (A) (A) (A) (A) (A) (A) (A) (A) (A)
                 (A) (A) (A) (A) (A) (A) (A) (A) (A) (A) (A) (A)
                 (A) (A) (A) (A) (A) (A) (A) (A) (A) (A) (A) (A)
                 (A) (A) (A) (A) (A) (A) (A) (A) (A) (A) (A) (A)
                 (A) (A) (A) (A) (A) (A) (A) (A) (A) (A) (A) (A)
                 (A) (A) (A) (A) (A)
       Virtual   (A) (A) (A) (A) (A) (A) (A) (A) (A) (A) (A) (A)
                 (A) (A) (A) (A) (A) (A) (A) (A) (A) (A) (A) (A)
                 (A) (A) (A) (A) (A) (A) (A) (A) (A) (A) (A) (A)
                 (A) (A) (A) (A) (A) (A) (A) (A) (A) (A) (A) (A)
                 (A) (A) (A) (A) (A) (A) (A) (A) (A) (A) (A) (A)
                 (A) (A) (A) (A) (A) (A) (A) (A) (A) (A) (A) (A)
                 (A) (A) (A) (A) (A) (A) (A) (A) (A) (A) (A) (A)
                 (A) (A) (A) (A) (A) (A) (A) (A) (A) (A) (A) (A)
                 (A) (A) (A) (A) (A) (A) (A) (A) (A) (A) (A) (A)
                 (A) (A) (A) (A) (A) (A) (A) (A) (A) (A) (A) (A)
                 (A) (A) (A) (A) (A) (A) (A) (A) (A) (A) (A) (A)
                 (A) (A) (A) (A) (A) (A) (A) (A) (A) (A) (A) (A)
                 (A) (A) (A) (A) (A) (A) (A) (A) (A) (A) (A) (A)
                 (A) (A) (A) (A) (A) (A) (A) (A) (A) (A) (A) (A)
                 (A) (A) (A) (A) (A) (A) (A) (A) (A) (A) (A) (A)
                 (A) (A) (A) (A) (A) (A) (A) (A) (A) (A) (A) (A)
                 (A) (A) (A) (A) (A) (A) (A) (A) (A) (A) (A) (A)
                 (A) (A) (A) (A) (A) (A) (A) (A) (A) (A) (A) (A)
                 (A) (A) (A) (A) (A) (A) (A) (A) (A) (A) (A) (A)
                 (A) (A) (A) (A) (A) (A) (A) (A) (A) (A) (A) (A)
                 (A) (A) (A) (A) (A) (A) (A) (A) (A) (A) (A) (A)
                 (A) (A) (A) (A) (A) (A) (A) (A) (A) (A) (A) (A)
                 (A) (A) (A) (A) (A) (A) (A) (A) (A) (A) (A) (A)
                 (A) (A) (A) (A) (A) (A) (A) (A) (A) (A) (A) (A)
                 (A) (A) (A) (A) (A) (A) (A) (A) (A) (A) (A) (A)
                 (A) (A) (A) (A) (A) (A) (A) (A) (A) (A) (A) (A)
                 (A) (A) (A) (A) (A) (A) (A) (A) (A) (A) (A) (A)
                 (A) (A) (A) (A) (A) (A) (A) (A) (A) (A) (A) (A)
                 (A) (A) (A) (A) (A) (A) (A) (A) (A) (A) (A) (A)
                 (A) (A) (A) (A) (A) (A) (A) (A) (A) (A) (A) (A)
                 (A) (A) (A) (A) (A) (A) (A) (A) (A) (A) (A) (A)
                 (A) (A) (A) (A) (A) (A) (A) (A) (A)
 The electronic state is 1-A.
 Alpha  occ. eigenvalues --  -19.23915 -19.23911 -14.44782 -14.44764 -10.33761
 Alpha  occ. eigenvalues --  -10.33760 -10.32046 -10.32045 -10.28363 -10.28363
 Alpha  occ. eigenvalues --  -10.27759 -10.27759 -10.27348 -10.27347 -10.27162
 Alpha  occ. eigenvalues --  -10.27162 -10.26768 -10.26768 -10.26731 -10.26731
 Alpha  occ. eigenvalues --  -10.26559 -10.26559 -10.26529 -10.26529 -10.26268
 Alpha  occ. eigenvalues --  -10.26268  -1.14386  -1.14210  -1.09411  -0.97078
 Alpha  occ. eigenvalues --   -0.96399  -0.94840  -0.90666  -0.90448  -0.87387
 Alpha  occ. eigenvalues --   -0.85760  -0.82385  -0.82302  -0.81363  -0.80081
 Alpha  occ. eigenvalues --   -0.75126  -0.71995  -0.70570  -0.70020  -0.69020
 Alpha  occ. eigenvalues --   -0.68666  -0.66109  -0.65344  -0.63549  -0.60462
 Alpha  occ. eigenvalues --   -0.59923  -0.59710  -0.57998  -0.57580  -0.56328
 Alpha  occ. eigenvalues --   -0.54201  -0.52526  -0.52183  -0.51660  -0.51566
 Alpha  occ. eigenvalues --   -0.51192  -0.50397  -0.49588  -0.49506  -0.48889
 Alpha  occ. eigenvalues --   -0.48277  -0.48059  -0.47215  -0.46246  -0.45545
 Alpha  occ. eigenvalues --   -0.45422  -0.44599  -0.44559  -0.44060  -0.41954
 Alpha  occ. eigenvalues --   -0.40898  -0.40829  -0.39903  -0.39150  -0.38029
 Alpha  occ. eigenvalues --   -0.37327  -0.37310  -0.35001  -0.32146  -0.31873
 Alpha  occ. eigenvalues --   -0.28686  -0.28531  -0.26961  -0.24385
 Alpha virt. eigenvalues --   -0.03732  -0.00096   0.02771   0.04186   0.04188
 Alpha virt. eigenvalues --    0.05247   0.10884   0.11716   0.13079   0.14370
 Alpha virt. eigenvalues --    0.14807   0.15079   0.17142   0.17152   0.17169
 Alpha virt. eigenvalues --    0.18891   0.19437   0.19996   0.20852   0.21719
 Alpha virt. eigenvalues --    0.22249   0.22351   0.22991   0.24085   0.25326
 Alpha virt. eigenvalues --    0.27518   0.27723   0.27973   0.28266   0.29630
 Alpha virt. eigenvalues --    0.30034   0.31060   0.32363   0.33598   0.35115
 Alpha virt. eigenvalues --    0.35132   0.36427   0.36595   0.37869   0.37875
 Alpha virt. eigenvalues --    0.38587   0.39833   0.40170   0.43731   0.44197
 Alpha virt. eigenvalues --    0.44443   0.48091   0.48820   0.50022   0.52858
 Alpha virt. eigenvalues --    0.53290   0.54737   0.55280   0.55721   0.56033
 Alpha virt. eigenvalues --    0.56454   0.57533   0.58526   0.58668   0.59186
 Alpha virt. eigenvalues --    0.59731   0.59762   0.59815   0.60201   0.60521
 Alpha virt. eigenvalues --    0.61331   0.61599   0.61862   0.62949   0.63393
 Alpha virt. eigenvalues --    0.64298   0.64884   0.64886   0.65206   0.65383
 Alpha virt. eigenvalues --    0.66918   0.66941   0.67066   0.67101   0.67261
 Alpha virt. eigenvalues --    0.67415   0.67950   0.68125   0.69005   0.69334
 Alpha virt. eigenvalues --    0.69374   0.69598   0.70861   0.71238   0.72333
 Alpha virt. eigenvalues --    0.72585   0.72759   0.74839   0.74975   0.75125
 Alpha virt. eigenvalues --    0.75887   0.77048   0.77237   0.78287   0.82307
 Alpha virt. eigenvalues --    0.83229   0.84998   0.85209   0.86123   0.86701
 Alpha virt. eigenvalues --    0.87221   0.88215   0.88252   0.88608   0.88929
 Alpha virt. eigenvalues --    0.88944   0.91395   0.91517   0.92937   0.93247
 Alpha virt. eigenvalues --    0.93352   0.93471   0.93764   0.95563   0.96098
 Alpha virt. eigenvalues --    0.97525   0.98060   0.99701   1.00044   1.01384
 Alpha virt. eigenvalues --    1.02220   1.02701   1.03534   1.03782   1.04241
 Alpha virt. eigenvalues --    1.04933   1.05726   1.06918   1.07589   1.08843
 Alpha virt. eigenvalues --    1.09910   1.10490   1.12408   1.13859   1.16117
 Alpha virt. eigenvalues --    1.17757   1.18002   1.19776   1.20699   1.22199
 Alpha virt. eigenvalues --    1.23141   1.24409   1.24961   1.26243   1.26976
 Alpha virt. eigenvalues --    1.27794   1.28668   1.29008   1.29294   1.30563
 Alpha virt. eigenvalues --    1.30956   1.33660   1.35443   1.35924   1.36556
 Alpha virt. eigenvalues --    1.36720   1.38294   1.39312   1.39626   1.40595
 Alpha virt. eigenvalues --    1.41065   1.42264   1.42441   1.44153   1.44981
 Alpha virt. eigenvalues --    1.46434   1.46510   1.46630   1.47011   1.47975
 Alpha virt. eigenvalues --    1.48537   1.48989   1.49015   1.50278   1.50314
 Alpha virt. eigenvalues --    1.52080   1.52741   1.53644   1.54487   1.55238
 Alpha virt. eigenvalues --    1.58430   1.60447   1.61794   1.65656   1.65676
 Alpha virt. eigenvalues --    1.67891   1.68024   1.71776   1.72253   1.78206
 Alpha virt. eigenvalues --    1.78395   1.79681   1.79740   1.80636   1.81592
 Alpha virt. eigenvalues --    1.82539   1.83257   1.83358   1.84003   1.87502
 Alpha virt. eigenvalues --    1.87554   1.90105   1.90132   1.90372   1.91428
 Alpha virt. eigenvalues --    1.93165   1.93248   1.94478   1.95347   1.96698
 Alpha virt. eigenvalues --    1.96914   1.97799   1.98306   1.99074   1.99358
 Alpha virt. eigenvalues --    1.99646   1.99673   1.99974   2.00831   2.01268
 Alpha virt. eigenvalues --    2.01893   2.03902   2.05693   2.05809   2.06035
 Alpha virt. eigenvalues --    2.07292   2.07328   2.08586   2.08777   2.10188
 Alpha virt. eigenvalues --    2.11469   2.12422   2.13246   2.14856   2.15679
 Alpha virt. eigenvalues --    2.16514   2.21509   2.24189   2.24893   2.27747
 Alpha virt. eigenvalues --    2.28451   2.31054   2.31341   2.32123   2.32640
 Alpha virt. eigenvalues --    2.32903   2.33189   2.33436   2.34902   2.35697
 Alpha virt. eigenvalues --    2.36629   2.36753   2.37441   2.37724   2.37981
 Alpha virt. eigenvalues --    2.41642   2.43423   2.44304   2.44449   2.44645
 Alpha virt. eigenvalues --    2.45839   2.45858   2.47514   2.48228   2.48366
 Alpha virt. eigenvalues --    2.50294   2.50705   2.51134   2.52276   2.52938
 Alpha virt. eigenvalues --    2.53760   2.54535   2.55032   2.56947   2.57214
 Alpha virt. eigenvalues --    2.58484   2.58715   2.59796   2.60679   2.61525
 Alpha virt. eigenvalues --    2.62755   2.63667   2.63725   2.64949   2.65481
 Alpha virt. eigenvalues --    2.66021   2.66690   2.67260   2.68454   2.68909
 Alpha virt. eigenvalues --    2.69571   2.69676   2.69811   2.70270   2.70701
 Alpha virt. eigenvalues --    2.72761   2.73921   2.76528   2.78066   2.78702
 Alpha virt. eigenvalues --    2.80231   2.81417   2.81605   2.82371   2.83351
 Alpha virt. eigenvalues --    2.84171   2.84205   2.86433   2.86837   2.87952
 Alpha virt. eigenvalues --    2.89561   2.90947   2.93217   2.96560   3.00473
 Alpha virt. eigenvalues --    3.03614   3.03791   3.04997   3.09078   3.11533
 Alpha virt. eigenvalues --    3.12253   3.14877   3.19756   3.19807   3.21852
 Alpha virt. eigenvalues --    3.23172   3.26331   3.27098   3.27508   3.27912
 Alpha virt. eigenvalues --    3.31795   3.31799   3.35130   3.35487   3.35681
 Alpha virt. eigenvalues --    3.36236   3.41857   3.41935   3.47262   3.47831
 Alpha virt. eigenvalues --    3.55869   3.55877   3.58448   3.62559   3.66786
 Alpha virt. eigenvalues --    3.67034   3.81822   3.83869   3.96101   3.96374
 Alpha virt. eigenvalues --    3.96807   4.14350   4.14828   4.17310   4.17752
 Alpha virt. eigenvalues --    4.20048   4.20182   4.21301   4.21684   4.22378
 Alpha virt. eigenvalues --    4.25683   4.26530   4.33482   4.35926   4.44257
 Alpha virt. eigenvalues --    4.45676   4.45769   4.46843   4.56820   4.60444
 Alpha virt. eigenvalues --    4.60558   4.62064   4.75501   4.76680   5.00938
 Alpha virt. eigenvalues --    5.01662
          Condensed to atoms (all electrons):
               1          2          3          4          5          6
     1  O    8.133999   0.000000  -0.045139   0.001228  -0.000000  -0.000000
     2  O    0.000000   8.134042   0.001230  -0.045209   0.000000  -0.000000
     3  N   -0.045139   0.001230   6.876227   0.185486   0.000000   0.000000
     4  N    0.001228  -0.045209   0.185486   6.876291   0.000000  -0.000000
     5  C   -0.000000   0.000000   0.000000   0.000000   4.841697   0.526568
     6  C   -0.000000  -0.000000   0.000000  -0.000000   0.526568   4.977896
     7  C    0.000000  -0.000000  -0.000009   0.000000   0.506829  -0.022945
     8  C   -0.000028  -0.000000   0.000209   0.000007  -0.026434  -0.068191
     9  C    0.003273  -0.000000   0.000002   0.000000   0.008300  -0.083723
    10  C   -0.058066  -0.000000   0.000042  -0.000001  -0.000401   0.007839
    11  C    0.000129   0.000000  -0.000086   0.000001  -0.015356   0.471935
    12  C    0.004993   0.000000   0.004344  -0.000081  -0.039846  -0.024141
    13  C    0.320179  -0.000000  -0.001056  -0.000068   0.000056  -0.000501
    14  C   -0.053851  -0.000001  -0.048445   0.006873  -0.000668   0.014159
    15  C   -0.016385  -0.000178   0.443530  -0.059018  -0.000007  -0.000123
    16  C   -0.000000  -0.000000  -0.000000   0.000000   0.000000   0.000000
    17  C    0.000000  -0.000000   0.000000   0.000000   0.000000   0.000000
    18  C   -0.000000   0.000000   0.000000  -0.000009   0.000000   0.000000
    19  C   -0.000000  -0.000028   0.000007   0.000208  -0.000000   0.000000
    20  C    0.000000   0.004995  -0.000081   0.004344   0.000000  -0.000000
    21  C    0.000000   0.000129   0.000001  -0.000086  -0.000000   0.000000
    22  C   -0.000000   0.003273   0.000000   0.000002  -0.000000  -0.000000
    23  C   -0.000000  -0.058059  -0.000001   0.000041  -0.000000   0.000000
    24  C   -0.000000   0.320197  -0.000068  -0.001054  -0.000000   0.000000
    25  C   -0.000001  -0.053852   0.006874  -0.048438   0.000000  -0.000000
    26  C   -0.000178  -0.016391  -0.059017   0.443525  -0.000000   0.000000
    27  H   -0.000000  -0.000000  -0.000000  -0.000000  -0.038685   0.004024
    28  H    0.000001   0.000000   0.000258  -0.000027   0.004302   0.000637
    29  H    0.000000  -0.000000  -0.000000  -0.000000   0.371114  -0.032887
    30  H    0.000000   0.000000  -0.000000   0.000000  -0.040577   0.369537
    31  H    0.275576  -0.000002   0.090513  -0.004313  -0.000000   0.000000
    32  H    0.000107  -0.000000   0.000009  -0.000000   0.000003  -0.000174
    33  H   -0.000069   0.000000  -0.000000   0.000000   0.000229  -0.008059
    34  H    0.000000   0.000000   0.000000  -0.000000   0.000000   0.000000
    35  H   -0.000000   0.000000  -0.000000  -0.000000   0.000000   0.000000
    36  H   -0.000000  -0.000000  -0.000000  -0.000000   0.000000   0.000000
    37  H    0.000000   0.000001  -0.000028   0.000258   0.000000  -0.000000
    38  H   -0.000002   0.275582  -0.004316   0.090545  -0.000000   0.000000
    39  H    0.000000  -0.000069   0.000000  -0.000000   0.000000   0.000000
    40  H   -0.000000   0.000107  -0.000000   0.000009   0.000000   0.000000
    41  H   -0.000487  -0.000399  -0.050890   0.001328  -0.000009   0.000007
    42  H   -0.000399  -0.000487   0.001333  -0.050888  -0.000000   0.000000
               7          8          9         10         11         12
     1  O    0.000000  -0.000028   0.003273  -0.058066   0.000129   0.004993
     2  O   -0.000000  -0.000000  -0.000000  -0.000000   0.000000   0.000000
     3  N   -0.000009   0.000209   0.000002   0.000042  -0.000086   0.004344
     4  N    0.000000   0.000007   0.000000  -0.000001   0.000001  -0.000081
     5  C    0.506829  -0.026434   0.008300  -0.000401  -0.015356  -0.039846
     6  C   -0.022945  -0.068191  -0.083723   0.007839   0.471935  -0.024141
     7  C    4.819725   0.535612  -0.000738   0.000069  -0.038180  -0.008389
     8  C    0.535612   5.021469   0.014661  -0.001325  -0.053175   0.473770
     9  C   -0.000738   0.014661   5.000194   0.513818   0.431079  -0.025936
    10  C    0.000069  -0.001325   0.513818   4.933548  -0.006720  -0.042862
    11  C   -0.038180  -0.053175   0.431079  -0.006720   4.763617   0.491977
    12  C   -0.008389   0.473770  -0.025936  -0.042862   0.491977   4.828794
    13  C   -0.000196   0.009827  -0.005121   0.468138  -0.052429   0.018695
    14  C    0.008742  -0.094074  -0.062580  -0.044880  -0.013123   0.346281
    15  C    0.000176  -0.017131  -0.000364   0.006770   0.008645  -0.047811
    16  C    0.000000   0.000000  -0.000000   0.000000   0.000000  -0.000000
    17  C    0.000000  -0.000000  -0.000000  -0.000000  -0.000000   0.000000
    18  C    0.000000   0.000000  -0.000000   0.000000   0.000000  -0.000000
    19  C    0.000000   0.000000   0.000000   0.000000  -0.000000  -0.000000
    20  C   -0.000000  -0.000000   0.000000  -0.000000  -0.000000   0.000000
    21  C    0.000000  -0.000000   0.000000   0.000000  -0.000000  -0.000000
    22  C   -0.000000   0.000000  -0.000000  -0.000000   0.000000   0.000000
    23  C    0.000000   0.000000  -0.000000   0.000000   0.000000  -0.000000
    24  C    0.000000   0.000000   0.000000   0.000000  -0.000000  -0.000000
    25  C   -0.000000   0.000000  -0.000000  -0.000000   0.000000   0.000000
    26  C    0.000000   0.000000  -0.000000  -0.000000   0.000000   0.000001
    27  H    0.370183  -0.032465   0.000008  -0.000000   0.001180   0.002743
    28  H   -0.039441   0.365083  -0.000189   0.000022   0.004486  -0.032677
    29  H   -0.037818   0.003995  -0.000197   0.000003   0.002526   0.001113
    30  H    0.004383   0.000604  -0.008350   0.000312  -0.040107   0.004091
    31  H    0.000000   0.000020  -0.000124   0.004600  -0.000010  -0.000361
    32  H   -0.000000   0.000013  -0.032813   0.358653   0.002599   0.000795
    33  H    0.000017  -0.000203   0.368531  -0.036276  -0.039413   0.004352
    34  H    0.000000   0.000000   0.000000  -0.000000   0.000000  -0.000000
    35  H    0.000000  -0.000000   0.000000   0.000000   0.000000  -0.000000
    36  H    0.000000   0.000000   0.000000   0.000000  -0.000000  -0.000000
    37  H    0.000000   0.000000   0.000000  -0.000000  -0.000000   0.000000
    38  H    0.000000   0.000002   0.000000   0.000000  -0.000000  -0.000005
    39  H   -0.000000  -0.000000  -0.000000  -0.000000   0.000000   0.000000
    40  H    0.000000   0.000000   0.000000  -0.000000  -0.000000  -0.000000
    41  H    0.000442   0.003300   0.000012  -0.000169  -0.000210  -0.013240
    42  H    0.000000   0.000000   0.000000   0.000000  -0.000000  -0.000002
              13         14         15         16         17         18
     1  O    0.320179  -0.053851  -0.016385  -0.000000   0.000000  -0.000000
     2  O   -0.000000  -0.000001  -0.000178  -0.000000  -0.000000   0.000000
     3  N   -0.001056  -0.048445   0.443530  -0.000000   0.000000   0.000000
     4  N   -0.000068   0.006873  -0.059018   0.000000   0.000000  -0.000009
     5  C    0.000056  -0.000668  -0.000007   0.000000   0.000000   0.000000
     6  C   -0.000501   0.014159  -0.000123   0.000000   0.000000   0.000000
     7  C   -0.000196   0.008742   0.000176   0.000000   0.000000   0.000000
     8  C    0.009827  -0.094074  -0.017131   0.000000  -0.000000   0.000000
     9  C   -0.005121  -0.062580  -0.000364  -0.000000  -0.000000  -0.000000
    10  C    0.468138  -0.044880   0.006770   0.000000  -0.000000   0.000000
    11  C   -0.052429  -0.013123   0.008645   0.000000  -0.000000   0.000000
    12  C    0.018695   0.346281  -0.047811  -0.000000   0.000000  -0.000000
    13  C    4.664100   0.407622  -0.082463   0.000000  -0.000000   0.000000
    14  C    0.407622   5.224647   0.387790  -0.000000   0.000000  -0.000000
    15  C   -0.082463   0.387790   4.821182   0.000000  -0.000000   0.000000
    16  C    0.000000  -0.000000   0.000000   4.977890   0.526568  -0.022944
    17  C   -0.000000   0.000000  -0.000000   0.526568   4.841698   0.506830
    18  C    0.000000  -0.000000   0.000000  -0.022944   0.506830   4.819719
    19  C    0.000000   0.000000   0.000000  -0.068191  -0.026435   0.535610
    20  C   -0.000000   0.000000   0.000001  -0.024139  -0.039847  -0.008383
    21  C   -0.000000   0.000000   0.000000   0.471937  -0.015357  -0.038181
    22  C    0.000000  -0.000000  -0.000000  -0.083722   0.008300  -0.000739
    23  C    0.000000  -0.000000  -0.000000   0.007839  -0.000401   0.000069
    24  C    0.000000   0.000000   0.000029  -0.000502   0.000056  -0.000196
    25  C    0.000000   0.000004  -0.000462   0.014159  -0.000668   0.008742
    26  C    0.000029  -0.000462   0.001559  -0.000123  -0.000007   0.000176
    27  H    0.000002  -0.000237   0.000011   0.000000   0.000000   0.000000
    28  H   -0.000184  -0.013847   0.003297  -0.000000   0.000000   0.000000
    29  H   -0.000000   0.000014  -0.000000   0.000000   0.000000   0.000000
    30  H    0.000010  -0.000192   0.000002   0.000000   0.000000   0.000000
    31  H   -0.025045  -0.013613  -0.009849   0.000000  -0.000000   0.000000
    32  H   -0.028104   0.006097  -0.000164   0.000000   0.000000   0.000000
    33  H    0.003913   0.000547   0.000008   0.000000   0.000000  -0.000000
    34  H    0.000000   0.000000  -0.000000   0.369537  -0.040577   0.004383
    35  H    0.000000  -0.000000   0.000000  -0.032887   0.371114  -0.037819
    36  H   -0.000000   0.000000   0.000000   0.004024  -0.038685   0.370183
    37  H   -0.000000   0.000000   0.000000   0.000637   0.004303  -0.039443
    38  H    0.000004   0.000016  -0.000403   0.000000  -0.000000   0.000000
    39  H   -0.000000  -0.000000  -0.000000  -0.008059   0.000229   0.000017
    40  H    0.000000   0.000000   0.000000  -0.000174   0.000003  -0.000000
    41  H    0.004662  -0.038642   0.360336   0.000000  -0.000000   0.000000
    42  H    0.000044  -0.000048   0.001599   0.000007  -0.000009   0.000442
              19         20         21         22         23         24
     1  O   -0.000000   0.000000   0.000000  -0.000000  -0.000000  -0.000000
     2  O   -0.000028   0.004995   0.000129   0.003273  -0.058059   0.320197
     3  N    0.000007  -0.000081   0.000001   0.000000  -0.000001  -0.000068
     4  N    0.000208   0.004344  -0.000086   0.000002   0.000041  -0.001054
     5  C   -0.000000   0.000000  -0.000000  -0.000000  -0.000000  -0.000000
     6  C    0.000000  -0.000000   0.000000  -0.000000   0.000000   0.000000
     7  C    0.000000  -0.000000   0.000000  -0.000000   0.000000   0.000000
     8  C    0.000000  -0.000000  -0.000000   0.000000   0.000000   0.000000
     9  C    0.000000   0.000000   0.000000  -0.000000  -0.000000   0.000000
    10  C    0.000000  -0.000000   0.000000  -0.000000   0.000000   0.000000
    11  C   -0.000000  -0.000000  -0.000000   0.000000   0.000000  -0.000000
    12  C   -0.000000   0.000000  -0.000000   0.000000  -0.000000  -0.000000
    13  C    0.000000  -0.000000  -0.000000   0.000000   0.000000   0.000000
    14  C    0.000000   0.000000   0.000000  -0.000000  -0.000000   0.000000
    15  C    0.000000   0.000001   0.000000  -0.000000  -0.000000   0.000029
    16  C   -0.068191  -0.024139   0.471937  -0.083722   0.007839  -0.000502
    17  C   -0.026435  -0.039847  -0.015357   0.008300  -0.000401   0.000056
    18  C    0.535610  -0.008383  -0.038181  -0.000739   0.000069  -0.000196
    19  C    5.021479   0.473768  -0.053175   0.014661  -0.001325   0.009827
    20  C    0.473768   4.828807   0.491973  -0.025934  -0.042863   0.018703
    21  C   -0.053175   0.491973   4.763626   0.431075  -0.006723  -0.052428
    22  C    0.014661  -0.025934   0.431075   5.000207   0.513813  -0.005117
    23  C   -0.001325  -0.042863  -0.006723   0.513813   4.933560   0.468132
    24  C    0.009827   0.018703  -0.052428  -0.005117   0.468132   4.664062
[...]
 .00024831,-0.00001963,0.00013847,-0.00022881,0.00017328,-0.00008289,0.
 00013191,-0.00000483,0.00007945,0.00008377,0.00002841,-0.00097310,-0.0
 0048630,0.00025373,0.00094179,-0.00020757,-0.00041897,-0.00052730,0.00
 001686,-0.00111645,-0.00051676,-0.00079251,0.00023282,0.00050838,-0.00
 001269,-0.00014239,0.00003606,0.00006210,-0.00001611,0.00016540,0.0001
 0664,-0.00009060,-0.00021588,-0.00053709,-0.00008720,0.00076572,0.0007
 3127,-0.00037977,-0.00108135,-0.00088571,0.00204017,0.00110539,0.00509
 668,0.00300151,-0.01195020,0.00144670,0.00230567,0.00109201,0.00126999
 ,-0.00260412,0.00256407,0.00344615,0.00076193,0.00000781,0.00001733,0.
 00001842,-0.00002245,-0.00001095,0.00002693,0.00000406,0.00000688,-0.0
 0000321,-0.00000079,0.00000081,0.00000317,0.00118069,-0.00032871,0.000
 07290,0.00001139,-0.00001062,0.00000355,-0.00000389,0.00000473,-0.0000
 3286,-0.00000659,-0.00002306,-0.00000662,0.00001436,-0.00000545,0.0000
 0614,-0.00000229,0.00000328,0.00003013,0.00005786,0.00001356,0.0000067
 4,-0.02655667,0.00429407,0.03842545,0.00001237,0.00000946,0.00001072,0
 .00036380,-0.00021726,-0.00010677,-0.00008522,0.00034344,-0.00014307,0
 .00013964,-0.00011096,0.00011021,-0.00004403,0.00001641,0.00001041,0.0
 0002733,0.00002238,-0.00001222,-0.00000810,-0.00006296,0.00001011,0.00
 004918,0.00005034,-0.00002217,-0.00000952,-0.00008161,0.00001801,-0.00
 004495,0.00011147,-0.00003259,0.00002227,-0.00000778,-0.00000662,-0.00
 004040,-0.00006475,0.00002192,0.00021236,-0.00004345,-0.00003969,-0.00
 022650,0.00013741,0.00006675,0.00000212,-0.00033679,0.00008331,0.00097
 117,0.00202828,-0.00140721,-0.00005146,-0.00027663,0.00003217,0.000136
 66,-0.00025924,0.00001416,-0.00045012,0.00164041,-0.00007706,-0.003316
 64,-0.00324660,0.00269335,-0.01569199,0.02175954,0.00177527,-0.2006642
 5,0.14190444,0.02258318,0.00929384,-0.00669823,-0.00004174,0.00098085,
 -0.00172148,0.00246175,-0.00020536,-0.00064345,-0.00017244,0.00013060,
 0.00010087,-0.00016282,0.00000054,-0.00000097,-0.00000018,0.00000148,0
 .00000164,0.00000234,-0.00000053,-0.00000066,0.00000107,0.00000007,0.0
 0000038,-0.00000024,-0.00002046,0.00000147,-0.00000389,-0.00000055,0.0
 0000152,-0.00000055,0.00000049,-0.00000001,0.00000450,0.00017373,-0.00
 127000,0.00026169,-0.00002617,-0.00002298,0.00003369,0.00003797,-0.000
 07457,0.00002283,-0.00043643,-0.00016246,0.00011267,-0.00009059,-0.000
 11107,-0.00010671,0.20847393,0.00005295,0.00007743,-0.00001894,0.00145
 514,-0.00127029,-0.00022227,0.00010712,-0.00001704,-0.00009285,0.00013
 537,0.00012121,0.00001912,0.00005794,-0.00000814,-0.00001482,-0.000062
 95,-0.00004663,0.00002572,-0.00001309,0.00003198,-0.00000357,0.0000149
 6,-0.00003239,0.00000163,-0.00001785,-0.00004141,0.00001298,-0.0000236
 5,0.00002690,-0.00001365,0.00004693,0.00002700,-0.00001903,-0.00002734
 ,-0.00001853,0.00001054,-0.00008048,-0.00006990,0.00004327,0.00003167,
 0.00006699,-0.00000527,0.00004803,-0.00002751,0.00000660,-0.00170232,0
 .00078462,-0.00011597,0.00044484,0.00003095,-0.00015082,-0.00008697,0.
 00024770,-0.00001246,-0.00034852,0.00027440,0.00009835,-0.00172344,-0.
 00007657,0.00121844,-0.00640974,0.00844723,0.00099754,0.14141753,-0.20
 004519,-0.01238975,0.02319334,-0.01544457,-0.00310463,-0.00271949,-0.0
 0323662,0.00280473,-0.00040644,-0.00009132,-0.00007321,0.00007831,-0.0
 0008762,-0.00007226,-0.00000513,-0.00000210,0.00000172,0.00000142,0.00
 000656,0.00000029,-0.00000015,-0.00000541,0.00000145,0.00000338,-0.000
 00174,-0.00000076,-0.00003509,-0.00000224,0.00000473,0.00000301,0.0000
 0138,-0.00000137,-0.00000001,-0.00000393,0.00000346,0.00029842,0.00006
 882,-0.00004143,0.00002647,0.00001596,0.00000303,0.00001586,0.00000285
 ,0.00000751,-0.00012152,-0.00002192,0.00001439,-0.00044062,-0.00017745
 ,0.00006558,-0.15275611,0.20959568,0.00000323,-0.00000648,0.00005565,-
 0.00039439,0.00025671,-0.00007067,-0.00010244,-0.00016052,-0.00032161,
 0.00006785,0.00008968,0.00042299,0.00000326,-0.00000293,0.00000173,0.0
 0000245,0.00000128,-0.00000283,0.00000153,0.00001071,-0.00001289,-0.00
 001608,-0.00000850,0.00000808,0.00000704,0.00003124,-0.00000303,-0.000
 00936,-0.00005234,-0.00008014,-0.00001603,-0.00000337,-0.00000035,0.00
 001549,0.00002126,-0.00001084,-0.00003332,0.00003266,0.00005162,0.0000
 8494,-0.00003556,0.00007088,0.00001714,0.00011680,0.00006581,-0.000765
 62,-0.00118438,-0.00230145,-0.00009191,0.00005580,-0.00008852,-0.00001
 547,0.00003687,0.00002852,0.00026501,-0.00047126,0.00027105,0.00243138
 ,0.00165463,0.00315728,0.00661989,-0.00706989,0.00289378,0.02266695,-0
 .01252922,-0.04093037,-0.00518261,0.00545612,0.00567158,0.00263341,0.0
 0251889,0.00735538,-0.00021320,-0.00000533,-0.00113188,-0.00015893,-0.
 00007873,-0.00031829,0.00000054,0.00000052,-0.00000091,0.00000237,0.00
 000023,0.00000990,0.00000098,0.00000160,0.00000225,-0.00000076,0.00000
 010,-0.00000036,0.00000240,-0.00000574,-0.00003286,-0.00000081,-0.0000
 0094,-0.00000117,0.00000450,0.00000346,0.00001430,-0.00000805,0.000407
 75,0.00025702,0.00002519,0.00001719,0.00006750,0.00000727,0.00003340,0
 .00006507,0.00010563,0.00002612,-0.00017532,-0.00005004,-0.00002881,-0
 .00051062,-0.02653522,0.01184359,0.02964975,0.00000695,-0.00012456,0.0
 0001580,0.00220392,-0.00157389,-0.00126920,0.00001021,0.00041894,-0.00
 006999,0.00050982,-0.00043182,-0.00008796,-0.00011764,0.00002514,0.000
 02886,0.00010648,0.00008476,-0.00004525,0.00000544,-0.00009842,0.00001
 496,0.00000435,0.00008401,-0.00001715,0.00001529,-0.00003859,0.0000018
 8,-0.00001362,0.00006961,-0.00000470,-0.00001400,-0.00004970,0.0000127
 7,0.00001418,0.00000531,-0.00000418,0.00028861,0.00004971,-0.00009154,
 -0.00020833,-0.00000729,0.00005109,-0.00014470,-0.00019920,0.00008010,
 -0.00015703,0.00000926,0.00018597,0.00000467,-0.00016421,-0.00017155,-
 0.00004405,-0.00003545,0.00007053,-0.00000441,0.00003009,-0.00016553,0
 .00024121,0.00056777,-0.00028491,0.00251337,0.00017530,0.00164947,-0.0
 0040897,-0.00015491,0.00084245,-0.29928249,-0.06926049,0.08748191,-0.0
 1725814,-0.00965035,0.00777301,-0.00103133,0.00383720,0.00103148,-0.00
 059979,-0.00071325,0.00035778,0.00000598,0.00000352,-0.00000152,0.0000
 0167,-0.00000338,0.00000143,-0.00000040,0.00000369,-0.00000033,-0.0000
 0224,0.00000208,0.00000055,-0.00005142,0.00002769,0.00001139,-0.000003
 92,0.00000034,0.00000152,-0.00000055,0.00000301,-0.00000081,0.00001554
 ,-0.00000503,0.00004477,-0.00002010,-0.00000485,-0.00000938,-0.0000048
 8,-0.00000716,0.00001327,0.00000738,0.00001579,0.00000689,-0.00055196,
 0.00033830,-0.00004242,0.00034417,-0.00048718,-0.00139756,0.31382207,-
 0.00003701,-0.00000156,0.00000869,-0.00179174,0.00206694,-0.00038802,-
 0.00011254,-0.00028414,0.00008408,-0.00029735,0.00013900,0.00005152,0.
 00005694,-0.00001953,-0.00001325,-0.00003807,-0.00003363,0.00001658,0.
 00001189,0.00006793,-0.00001533,-0.00002700,-0.00004904,0.00001529,0.0
 0000320,0.00009162,-0.00001690,0.00004078,-0.00011557,0.00001022,-0.00
 003997,0.00001826,0.00000844,0.00002333,0.00001979,-0.00000961,-0.0002
 0048,0.00005762,0.00004731,0.00017819,-0.00006064,-0.00004651,0.000054
 38,0.00021804,-0.00005041,-0.00117658,0.00055725,0.00032675,-0.0002115
 0,-0.00048286,0.00002444,0.00023029,-0.00006036,-0.00002445,-0.0001161
 6,0.00016353,-0.00009191,0.00024762,-0.00062657,-0.00003413,0.00085607
 ,-0.00501005,0.00205739,-0.02880690,-0.00225371,0.00905728,-0.07197898
 ,-0.08077161,0.02841514,0.02192352,0.00962032,-0.00723031,0.00283102,-
 0.00373837,0.00067051,0.00074421,0.00092841,-0.00033478,-0.00000101,-0
 .00000151,0.00000103,-0.00000038,-0.00000122,0.00000111,0.00000109,0.0
 0000204,-0.00000055,-0.00000140,-0.00000047,0.00000064,0.00004735,-0.0
 0001209,-0.00001062,0.00000034,-0.00000204,0.00000053,0.00000152,0.000
 00138,-0.00000094,0.00003968,-0.00003919,0.00002441,-0.00013343,-0.000
 03713,0.00003501,-0.00001257,0.00001396,0.00000759,-0.00004493,-0.0000
 0744,0.00002119,0.00050238,-0.00023914,-0.00018823,0.00006917,0.000924
 46,-0.00100919,0.07698927,0.07924019,0.00000075,0.00003376,-0.00001870
 ,-0.00123174,-0.00045040,-0.00274263,0.00002141,-0.00006810,0.00002297
 ,-0.00011107,0.00009001,-0.00004027,0.00002339,-0.00000414,-0.00000776
 ,-0.00002412,-0.00001859,0.00000950,-0.00000401,0.00001626,-0.00000305
 ,0.00000195,-0.00001649,-0.00000280,-0.00000530,-0.00000494,0.00000106
 ,0.00000025,0.00000197,0.00001135,0.00001111,0.00001123,-0.00000434,-0
 .00000728,-0.00000445,0.00000562,-0.00004849,-0.00002435,0.00001692,0.
 00001917,0.00000662,-0.00004097,0.00003650,0.00002218,0.00000115,0.000
 38992,-0.00001288,0.00038844,-0.00016340,0.00001090,-0.00064802,0.0000
 2482,0.00005166,0.00016495,-0.00014038,-0.00013380,-0.00050110,-0.0002
 2986,-0.00012578,-0.00032521,0.00153238,0.00225236,0.00755183,0.005770
 13,0.00085146,0.00064061,0.08794946,0.02763669,-0.06535572,0.00234289,
 0.00181216,0.00310492,0.00120448,0.00038233,0.00446389,0.00010711,0.00
 008263,0.00017625,-0.00000074,-0.00000027,0.00000305,0.00000091,0.0000
 0197,0.00000403,0.00000012,-0.00000129,0.00000086,0.00000115,-0.000000
 35,0.00000067,0.00000801,-0.00000499,0.00000355,0.00000152,0.00000053,
 0.00000106,-0.00000055,-0.00000137,-0.00000117,0.00003708,0.00003722,0
 .00015183,0.00001274,-0.00000181,-0.00005908,0.00001420,0.00000604,0.0
 0003204,0.00001734,0.00000380,0.00003531,-0.00007066,-0.00014123,-0.00
 045245,-0.00149323,-0.00084985,-0.00425442,-0.09593830,-0.03136602,0.0
 5793887,-0.00030046,0.00085105,-0.00032293,0.00038795,0.00026860,-0.00
 024167,-0.00805749,-0.00662185,0.00770254,0.00312332,0.00196410,-0.002
 34969,0.00005622,-0.00010887,0.00003529,-0.00016245,-0.00035736,0.0000
 8078,0.00079969,-0.00033771,-0.00027710,-0.00065869,-0.00106575,0.0002
 8570,-0.00029629,-0.00045337,0.00016037,-0.00100358,0.00005920,0.00007
 641,-0.00000126,0.00058013,-0.00017021,-0.00107936,-0.00191454,0.00005
 981,0.00005128,0.00321065,0.00100623,-0.01415481,-0.00466170,0.0062716
 6,-0.29884970,-0.04858258,0.08315262,-0.00024634,-0.00021184,0.0001097
 3,0.00030510,-0.00008395,-0.00007657,0.00002794,0.00029206,-0.00004647
 ,-0.00012075,-0.00019965,0.00006563,0.00010035,0.00002054,-0.00003408,
 0.00000219,0.00013484,-0.00000650,-0.00006085,0.00014331,-0.00002425,0
 .00006354,-0.00021401,0.00013595,-0.00087767,-0.00009731,0.00017729,0.
 00054147,-0.00003708,-0.00022642,0.00055715,0.00065878,-0.00069064,-0.
 00001593,0.00002124,-0.00000555,0.00178209,-0.00149660,0.00027875,0.00
 006247,-0.00005192,0.00000892,0.00001351,0.00001145,-0.00000754,0.0017
 6408,-0.00087042,0.00005466,-0.00022074,0.00018039,-0.00006794,0.00003
 628,0.00004823,0.00004310,0.00000740,-0.00000948,0.00000239,0.00000157
 ,-0.00000937,-0.00000150,-0.00001440,0.00000002,0.00000623,-0.00000322
 ,0.00000717,-0.00001193,-0.00033862,-0.00036828,0.00025058,0.00000241,
 -0.00001279,-0.00001979,0.00001941,-0.00000463,0.00000833,0.31701152,-
 0.00115671,0.00153502,-0.00009039,0.00001245,0.00064154,-0.00016456,-0
 .03430121,-0.01372244,0.01473847,-0.00297381,0.00665868,-0.00096428,0.
 00013975,0.00000831,-0.00002183,-0.00023067,0.00006936,0.00003780,-0.0
 0041936,0.00016350,0.00002825,0.00107545,-0.00251484,0.00007262,-0.000
 11453,0.00002985,0.00002621,0.00094402,0.00103728,-0.00056934,0.000126
 13,-0.00017164,-0.00004915,-0.00113358,0.00052112,-0.00011233,0.002095
 48,-0.00445167,0.00111000,0.01858754,0.01047794,-0.00627443,-0.0444013
 1,-0.06876110,0.01806339,-0.00000546,-0.00001749,0.00000622,-0.0000418
 3,0.00002596,0.00000533,-0.00001069,-0.00009483,0.00002643,0.00009136,
 0.00008027,-0.00004194,-0.00009517,-0.00017092,0.00005557,0.00009148,0
 .00007046,-0.00002791,-0.00006704,-0.00026622,0.00005476,-0.00013134,0
 .00043301,0.00003361,0.00021028,-0.00084954,0.00003136,-0.00032519,0.0
 0050583,-0.00004053,0.00044847,-0.00169284,-0.00008815,0.00000117,-0.0
 0004432,0.00000340,-0.00098123,-0.00393655,0.00127753,-0.00003330,0.00
 002986,0.00001514,-0.00000289,0.00001100,-0.00000208,0.00234124,-0.002
 22420,-0.00004172,0.00025516,-0.00027598,-0.00008577,-0.00002038,-0.00
 002357,0.00004699,0.00000185,0.00000112,0.00000101,-0.00000168,-0.0000
 0316,-0.00000057,0.00000036,-0.00000042,0.00000124,-0.00000321,0.00000
 676,-0.00000722,0.00070358,-0.00076027,-0.00001660,-0.00000822,-0.0000
 0004,-0.00001043,0.00001379,-0.00000690,0.00000510,0.05891606,0.077353
 94,0.00002231,-0.00066526,-0.00080905,-0.00019760,-0.00023791,-0.00019
 712,0.01246185,0.00681166,0.01012203,-0.00150041,-0.00237835,-0.003063
 15,-0.00000744,0.00004936,0.00010776,0.00005898,0.00007407,-0.00012460
 ,-0.00026302,0.00000485,-0.00029611,-0.00008277,0.00068595,-0.00039575
 ,0.00010209,0.00012326,-0.00005896,-0.00007581,-0.00031600,-0.00062533
 ,-0.00009211,-0.00017915,-0.00019010,-0.00007443,0.00011139,-0.0020180
 3,0.00119786,0.00079061,0.00501397,0.00227398,0.00038341,0.00422850,0.
 08243371,0.01926086,-0.06458052,0.00007423,0.00006532,-0.00002291,-0.0
 0008382,0.00001739,0.00000832,0.00000559,-0.00006027,0.00004982,0.0000
 1558,0.00004139,-0.00002306,-0.00001418,0.00002245,-0.00000611,0.00000
 099,-0.00004033,0.00006715,0.00001192,-0.00000552,-0.00006194,0.000121
 73,0.00005732,0.00036506,0.00012438,0.00011939,-0.00037326,-0.00017686
 ,-0.00012308,-0.00019962,-0.00065448,-0.00014837,-0.00124590,-0.000002
 11,-0.00000234,-0.00002156,0.00019026,0.00142508,0.00155728,0.00000573
 ,0.00002047,0.00005730,-0.00000507,-0.00000619,-0.00000342,-0.00049751
 ,0.00087799,0.00142380,-0.00008082,-0.00006433,-0.00031549,0.00005491,
 0.00002734,0.00019532,0.00000044,0.00000425,0.00000918,-0.00000282,0.0
 0000163,-0.00000877,0.00000617,0.00000133,0.00000537,-0.00001015,-0.00
 001020,-0.00003593,0.00006625,0.00029038,0.00024627,-0.00002058,-0.000
 00912,-0.00006691,0.00000516,0.00001038,0.00004246,-0.09559338,-0.0269
 7798,0.05060208,0.00038794,0.00026859,-0.00024168,-0.00030045,0.000850
 97,-0.00032295,0.00312325,0.00196397,-0.00234973,-0.00805685,-0.006621
 55,0.00770284,0.00030509,-0.00008395,-0.00007658,-0.00024634,-0.000211
 83,0.00010973,0.00002794,0.00029206,-0.00004646,-0.00012075,-0.0001996
 5,0.00006563,-0.00006085,0.00014332,-0.00002425,0.00006355,-0.00021402
 ,0.00013596,0.00000218,0.00013484,-0.00000649,0.00010035,0.00002053,-0
 .00003408,-0.00087767,-0.00009728,0.00017727,0.00054144,-0.00003706,-0
 .00022643,0.00055713,0.00065875,-0.00069065,-0.00016245,-0.00035735,0.
 00008078,0.00005622,-0.00010886,0.00003531,0.00079968,-0.00033770,-0.0
 0027709,-0.00065869,-0.00106581,0.00028555,-0.00107940,-0.00191458,0.0
 0005982,-0.00000128,0.00058013,-0.00017023,-0.00029628,-0.00045337,0.0
 0016039,-0.00100359,0.00005920,0.00007636,0.00005140,0.00321071,0.0010
 0634,-0.01415476,-0.00466152,0.00627212,-0.29884508,-0.04858103,0.0831
 5987,-0.00001440,0.00000002,0.00000623,-0.00000322,0.00000717,-0.00001
 194,0.00000157,-0.00000937,-0.00000150,0.00000740,-0.00000948,0.000002
 39,-0.00033863,-0.00036826,0.00025057,0.00001941,-0.00000463,0.0000083
 3,0.00000241,-0.00001279,-0.00001979,0.00001351,0.00001145,-0.00000754
 ,0.00006247,-0.00005192,0.00000893,-0.00001593,0.00002124,-0.00000556,
 0.00178208,-0.00149666,0.00027883,0.00176403,-0.00087037,0.00005467,0.
 00003629,0.00004823,0.00004310,-0.00022075,0.00018039,-0.00006796,-0.0
 0025432,0.00040321,0.00020123,0.31700633,0.00001244,0.00064153,-0.0001
 6455,-0.00115671,0.00153497,-0.00009042,-0.00297388,0.00665860,-0.0009
 6447,-0.03430058,-0.01372211,0.01473986,-0.00004183,0.00002596,0.00000
 534,-0.00000546,-0.00001749,0.00000622,-0.00001069,-0.00009484,0.00002
 643,0.00009136,0.00008028,-0.00004194,-0.00006704,-0.00026621,0.000054
 75,-0.00013133,0.00043301,0.00003363,0.00009147,0.00007046,-0.00002791
 ,-0.00009517,-0.00017092,0.00005556,0.00021028,-0.00084953,0.00003132,
 -0.00032521,0.00050584,-0.00004054,0.00044843,-0.00169287,-0.00008822,
 -0.00023067,0.00006936,0.00003780,0.00013975,0.00000831,-0.00002183,-0
 .00041937,0.00016351,0.00002825,0.00107548,-0.00251486,0.00007264,-0.0
 0113362,0.00052108,-0.00011239,0.00012612,-0.00017163,-0.00004912,-0.0
 0011452,0.00002985,0.00002620,0.00094401,0.00103728,-0.00056938,0.0020
 9556,-0.00445164,0.00111008,0.01858730,0.01047791,-0.00627495,-0.04439
 976,-0.06876060,0.01806489,0.00000036,-0.00000042,0.00000124,-0.000003
 21,0.00000676,-0.00000722,-0.00000168,-0.00000316,-0.00000058,0.000001
 85,0.00000112,0.00000100,0.00070360,-0.00076025,-0.00001653,0.00001379
 ,-0.00000690,0.00000510,-0.00000822,-0.00000004,-0.00001043,-0.0000028
 9,0.00001100,-0.00000209,-0.00003330,0.00002986,0.00001514,0.00000117,
 -0.00004432,0.00000341,-0.00098133,-0.00393665,0.00127728,0.00234122,-
 0.00222417,-0.00004169,-0.00002038,-0.00002357,0.00004699,0.00025517,-
 0.00027598,-0.00008575,0.00040322,0.00032814,-0.00005315,0.05891427,0.
 07735333,-0.00019763,-0.00023793,-0.00019711,0.00002235,-0.00066549,-0
 .00080901,-0.00150056,-0.00237867,-0.00306301,0.01246334,0.00681248,0.
 01012111,-0.00008383,0.00001740,0.00000833,0.00007425,0.00006533,-0.00
 002291,0.00000560,-0.00006029,0.00004982,0.00001560,0.00004141,-0.0000
 2307,0.00001193,-0.00000549,-0.00006194,0.00012175,0.00005729,0.000365
 05,0.00000095,-0.00004034,0.00006715,-0.00001419,0.00002240,-0.0000060
 9,0.00012443,0.00011947,-0.00037328,-0.00017694,-0.00012301,-0.0001995
 9,-0.00065452,-0.00014847,-0.00124586,0.00005900,0.00007409,-0.0001246
 1,-0.00000746,0.00004938,0.00010775,-0.00026306,0.00000487,-0.00029611
 ,-0.00008257,0.00068585,-0.00039574,-0.00007453,0.00011123,-0.00201794
 ,-0.00009217,-0.00017916,-0.00019008,0.00010212,0.00012324,-0.00005897
 ,-0.00007579,-0.00031594,-0.00062533,0.00119818,0.00079071,0.00501378,
 0.00227362,0.00038383,0.00422845,0.08244076,0.01926229,-0.06458566,0.0
 0000618,0.00000133,0.00000537,-0.00001015,-0.00001020,-0.00003593,-0.0
 0000282,0.00000163,-0.00000877,0.00000044,0.00000425,0.00000918,0.0000
 6623,0.00029044,0.00024625,0.00000516,0.00001038,0.00004246,-0.0000205
 8,-0.00000912,-0.00006691,-0.00000507,-0.00000619,-0.00000342,0.000005
 72,0.00002048,0.00005730,-0.00000210,-0.00000234,-0.00002156,0.0001901
 3,0.00142489,0.00155739,-0.00049771,0.00087814,0.00142382,0.00005490,0
 .00002734,0.00019532,-0.00008081,-0.00006435,-0.00031548,0.00020120,-0
 .00005322,0.00064191,-0.09560133,-0.02697998,0.05060791\\0.00010941,-0
 .00003969,-0.00002423,-0.00011012,0.00004031,0.00002479,-0.00013131,-0
 .00001622,0.00004078,0.00013211,0.00001647,-0.00004003,-0.00001633,0.0
 0000378,0.00000402,0.00001034,0.00000799,-0.00000439,-0.00000883,-0.00
 001989,0.00000598,0.00001917,0.00002012,-0.00000889,0.00001806,-0.0000
 0899,-0.00000366,0.00000737,-0.00003685,0.00000404,0.00000050,0.000009
 91,-0.00000192,-0.00000010,-0.00003550,0.00000662,0.00007089,0.0000161
 1,-0.00002308,-0.00007064,0.00000364,0.00001934,-0.00002337,0.00005914
 ,-0.00000444,-0.00001034,-0.00000799,0.00000431,0.00001628,-0.00000377
 ,-0.00000403,0.00000890,0.00001977,-0.00000593,-0.00001902,-0.00001999
 ,0.00000891,0.00000019,0.00003538,-0.00000582,-0.00000063,-0.00000994,
 0.00000188,-0.00001809,0.00000897,0.00000363,-0.00000734,0.00003685,-0
 .00000435,-0.00007102,-0.00001599,0.00002302,0.00006995,-0.00000302,-0
 .00001975,0.00002332,-0.00006006,0.00000294,-0.00000105,0.00000084,0.0
 0000013,-0.00000223,0.00000169,0.00000035,0.00000097,-0.00000133,-0.00
 000003,-0.00000082,-0.00000163,0.00000050,-0.00008211,0.00008180,0.000
 00952,0.00000146,0.00000056,-0.00000050,0.00000077,-0.00000058,-0.0000
 0008,0.00000081,0.00000163,-0.00000052,-0.00000096,0.00000134,0.000000
 06,0.00000104,-0.00000085,-0.00000017,0.00000223,-0.00000169,-0.000000
 35,0.00008270,-0.00008231,-0.00000944,-0.00000075,0.00000059,0.0000001
 3,-0.00000144,-0.00000056,0.00000052,0.00000070,0.00001102,-0.00000199
 ,-0.00000067,-0.00001103,0.00000216\\\@


 NATURE WILL TELL YOU A DIRECT LIE IF SHE CAN.

                                -- CHARLES DARWIN
 Job cpu time:       0 days  7 hours 31 minutes 53.0 seconds.
 Elapsed time:       0 days  7 hours 32 minutes 57.5 seconds.
 File lengths (MBytes):  RWF=   3515 Int=      0 D2E=      0 Chk=     67 Scr=      1
 Normal termination of Gaussian 16 at Tue Aug 17 11:49:11 2021.
