 Entering Gaussian System, Link 0=g16
 Initial command:
 /opt/export//g16/l1.exe "/tmp/Gau-3899846.inp" -scrdir="/tmp/"
 Entering Link 1 = /opt/export//g16/l1.exe PID=   3899847.
  
 Copyright (c) 1988,1990,1992,1993,1995,1998,2003,2009,2016,
            Gaussian, Inc.  All Rights Reserved.
  
 This is part of the Gaussian(R) 16 program.  It is based on
 the Gaussian(R) 09 system (copyright 2009, Gaussian, Inc.),
 the Gaussian(R) 03 system (copyright 2003, Gaussian, Inc.),
 the Gaussian(R) 98 system (copyright 1998, Gaussian, Inc.),
 the Gaussian(R) 94 system (copyright 1995, Gaussian, Inc.),
 the Gaussian 92(TM) system (copyright 1992, Gaussian, Inc.),
 the Gaussian 90(TM) system (copyright 1990, Gaussian, Inc.),
 the Gaussian 88(TM) system (copyright 1988, Gaussian, Inc.),
 the Gaussian 86(TM) system (copyright 1986, Carnegie Mellon
 University), and the Gaussian 82(TM) system (copyright 1983,
 Carnegie Mellon University). Gaussian is a federally registered
 trademark of Gaussian, Inc.
  
 This software contains proprietary and confidential information,
 including trade secrets, belonging to Gaussian, Inc.
  
 This software is provided under written license and may be
 used, copied, transmitted, or stored only in accord with that
 written license.
  
 The following legend is applicable only to US Government
 contracts under FAR:
  
                    RESTRICTED RIGHTS LEGEND
  
 Use, reproduction and disclosure by the US Government is
 subject to restrictions as set forth in subparagraphs (a)
 and (c) of the Commercial Computer Software - Restricted
 Rights clause in FAR 52.227-19.
  
 Gaussian, Inc.
 340 Quinnipiac St., Bldg. 40, Wallingford CT 06492
  
  
 ---------------------------------------------------------------
 Warning -- This program may not be used in any manner that
 competes with the business of Gaussian, Inc. or will provide
 assistance to any competitor of Gaussian, Inc.  The licensee
 of this program is prohibited from giving any competitor of
 Gaussian, Inc. access to this program.  By using this program,
 the user acknowledges that Gaussian, Inc. is engaged in the
 business of creating and licensing software in the field of
 computational chemistry and represents and warrants to the
 licensee that it is not a competitor of Gaussian, Inc. and that
 it will not use this program in any manner prohibited above.
 ---------------------------------------------------------------
  

 Cite this work as:
 Gaussian 16, Revision A.03,
 M. J. Frisch, G. W. Trucks, H. B. Schlegel, G. E. Scuseria, 
 M. A. Robb, J. R. Cheeseman, G. Scalmani, V. Barone, 
 G. A. Petersson, H. Nakatsuji, X. Li, M. Caricato, A. V. Marenich, 
 J. Bloino, B. G. Janesko, R. Gomperts, B. Mennucci, H. P. Hratchian, 
 J. V. Ortiz, A. F. Izmaylov, J. L. Sonnenberg, D. Williams-Young, 
 F. Ding, F. Lipparini, F. Egidi, J. Goings, B. Peng, A. Petrone, 
 T. Henderson, D. Ranasinghe, V. G. Zakrzewski, J. Gao, N. Rega, 
 G. Zheng, W. Liang, M. Hada, M. Ehara, K. Toyota, R. Fukuda, 
 J. Hasegawa, M. Ishida, T. Nakajima, Y. Honda, O. Kitao, H. Nakai, 
 T. Vreven, K. Throssell, J. A. Montgomery, Jr., J. E. Peralta, 
 F. Ogliaro, M. J. Bearpark, J. J. Heyd, E. N. Brothers, K. N. Kudin, 
 V. N. Staroverov, T. A. Keith, R. Kobayashi, J. Normand, 
 K. Raghavachari, A. P. Rendell, J. C. Burant, S. S. Iyengar, 
 J. Tomasi, M. Cossi, J. M. Millam, M. Klene, C. Adamo, R. Cammi, 
 J. W. Ochterski, R. L. Martin, K. Morokuma, O. Farkas, 
 J. B. Foresman, and D. J. Fox, Gaussian, Inc., Wallingford CT, 2016.
 
 ******************************************
 Gaussian 16:  EM64L-G16RevA.03 25-Dec-2016
                24-Aug-2021 
 ******************************************
 %OldChk=TD_PY101_keto_CB.chk
 %chk=TD_PY101_keto_CB_2.chk
 Copying data from "TD_PY101_keto_CB.chk" to current chk file "TD_PY101_keto_CB_2.chk"
 IOpt=  2 FromEx=T IUOpen= 4 IOptOp= 5 NList=   0 IFRang= 0 IUIn= 4 IUOut= 2.
 ----------------------------------------------------------------------
 #n CAM-B3LYP/6-31G(d,p) Opt=(Tight,ReadFC) TD=(nstates=7) Freq Geom=Al
 lCheck Guess=Read
 ----------------------------------------------------------------------
 1/7=10,10=3,18=20,19=15,26=3,29=7,38=1/1,3;
 2/9=110,12=2,40=1/2;
 3/5=1,6=6,7=101,11=9,14=-4,25=1,30=1,71=1,74=-40,116=-2/1,2,3,8;
 4/5=1/1;
 5/5=2,38=6/2;
 8/6=1,10=2,108=7/1;
 9/15=2,41=7,42=1,70=2/14;
 10/5=4/2;
 6/7=2,8=2,9=2,10=2/1;
 7/12=6,13=5/1,2,3,16;
 1/7=10,18=20,19=15,26=3/3(2);
 2/9=110/2;
 99//99;
 2/9=110/2;
 3/5=1,6=6,7=101,11=9,14=-2,25=1,30=1,71=1,74=-40/1,2,3,8;
 4/5=5,16=3,69=1/1;
 5/5=2,38=5/2;
 8/6=1,10=2,108=7/1;
 9/15=2,41=7,42=1,49=4,70=2/14;
 10/5=4/2;
 7/12=6,13=5/1,2,3,16;
 1/7=10,18=20,19=15,26=3/3(-8);
 2/9=110/2;
 6/7=2,8=2,9=2,10=2/1;
 99//99;
 Structure from the checkpoint file:  "TD_PY101_keto_CB_2.chk"
 ----------
 PY101_keto
 ----------
 Charge =  0 Multiplicity = 1
 Redundant internal coordinates found in file.  (old form).
 O,0,2.0074047015,2.6916107197,0.0049665951
 O,0,-1.6938197157,-2.3469238226,-0.0029315605
 N,0,0.5579309179,0.5708326737,0.0016711923
 N,0,-0.5744671858,-0.1085781213,0.0004645085
 C,0,6.5956874531,-1.7792260346,-0.0002767009
 C,0,6.6238503427,-0.4052703264,0.00165495
 C,0,5.3593825172,-2.441237498,-0.0014798854
 C,0,4.1815219762,-1.7252761156,-0.0007391162
 C,0,5.4759407328,1.7705435577,0.0044483018
 C,0,4.3295321716,2.5152796732,0.005236676
 C,0,5.4327682918,0.3503077602,0.002448288
 C,0,4.1748072028,-0.3147670599,0.0012358234
 C,0,3.0696208838,1.8911261157,0.0040812343
 C,0,2.9528123229,0.4694618425,0.0020624341
 C,0,1.6782214613,-0.1477358977,0.0009121893
 C,0,-6.6880528866,0.0272211223,-0.0007026727
 C,0,-6.8522754754,1.3976725387,0.0011881321
 C,0,-5.7237636779,2.2300798692,0.0026094963
 C,0,-4.4600052621,1.6847192028,0.002123308
 C,0,-4.2564077115,0.2822456487,0.0001961748
 C,0,-5.4132791425,-0.5556580276,-0.001239181
 C,0,-5.2571596777,-1.9783586475,-0.0032052863
 C,0,-4.0301474559,-2.5585015264,-0.0037484531
 C,0,-2.8243760101,-1.7786360156,-0.0023837421
 C,0,-2.9507770438,-0.3139905272,-0.0003522947
 C,0,-1.7777470844,0.475007265,0.0010175818
 H,0,5.3255581825,-3.5256612147,-0.0030069102
 H,0,3.2499101444,-2.2775318581,-0.0017202995
 H,0,7.5194809551,-2.3477269164,-0.0008674301
 H,0,7.5718546775,0.1246984947,0.002608963
 H,0,1.1892227732,2.1267866797,0.0039929497
 H,0,4.3485836241,3.5988855721,0.006759647
 H,0,6.4442486892,2.2615167528,0.0053521492
 H,0,-7.5563083479,-0.625314969,-0.0018132461
 H,0,-7.8477252606,1.8287596164,0.0015732244
 H,0,-5.8445579014,3.3081659508,0.0040988236
 H,0,-3.610346082,2.3568270257,0.0032573407
 H,0,-6.1539714225,-2.5910698647,-0.0042662652
 H,0,-3.9014155713,-3.6348994222,-0.0052335687
 H,0,1.5954354236,-1.2319112709,-0.0006283851
 H,0,-1.7817325769,1.5568231407,0.0025375707
 H,0,-0.661449456,-1.175630623,-0.0010548561
 Recover connectivity data from disk.

 GradGradGradGradGradGradGradGradGradGradGradGradGradGradGradGradGradGrad
 Berny optimization.
 Initialization pass.
 Force constant matrix read from checkpoint file:
 "TD_PY101_keto_CB_2.chk"
                           ----------------------------
                           !    Initial Parameters    !
                           ! (Angstroms and Degrees)  !
 --------------------------                            --------------------------
 ! Name  Definition              Value          Derivative Info.                !
 --------------------------------------------------------------------------------
 ! R1    R(1,13)                 1.3301         D2E/DX2 =    0.5001             !
 ! R2    R(1,31)                 0.9942         D2E/DX2 =    0.3688             !
 ! R3    R(2,24)                 1.2653         D2E/DX2 =    0.63               !
 ! R4    R(3,4)                  1.3206         D2E/DX2 =    0.5087             !
 ! R5    R(3,15)                 1.3309         D2E/DX2 =    0.5111             !
 ! R6    R(4,26)                 1.3373         D2E/DX2 =    0.4915             !
 ! R7    R(4,42)                 1.0706         D2E/DX2 =    0.2409             !
 ! R8    R(5,6)                  1.3742         D2E/DX2 =    0.4466             !
 ! R9    R(5,7)                  1.4024         D2E/DX2 =    0.3863             !
 ! R10   R(5,29)                 1.0847         D2E/DX2 =    0.3662             !
 ! R11   R(6,11)                 1.4105         D2E/DX2 =    0.3783             !
 ! R12   R(6,30)                 1.0861         D2E/DX2 =    0.3627             !
 ! R13   R(7,8)                  1.3784         D2E/DX2 =    0.4342             !
 ! R14   R(7,27)                 1.085          D2E/DX2 =    0.3655             !
 ! R15   R(8,12)                 1.4105         D2E/DX2 =    0.3739             !
 ! R16   R(8,28)                 1.083          D2E/DX2 =    0.3698             !
 ! R17   R(9,10)                 1.3671         D2E/DX2 =    0.4606             !
 ! R18   R(9,11)                 1.4209         D2E/DX2 =    0.3608             !
 ! R19   R(9,33)                 1.0857         D2E/DX2 =    0.364              !
 ! R20   R(10,13)                1.406          D2E/DX2 =    0.3821             !
 ! R21   R(10,32)                1.0838         D2E/DX2 =    0.3696             !
 ! R22   R(11,12)                1.423          D2E/DX2 =    0.3017             !
 ! R23   R(12,14)                1.452          D2E/DX2 =    0.3366             !
 ! R24   R(13,14)                1.4265         D2E/DX2 =    0.3899             !
 ! R25   R(14,15)                1.4162         D2E/DX2 =    0.4271             !
 ! R26   R(15,40)                1.0873         D2E/DX2 =    0.3593             !
 ! R27   R(16,17)                1.3803         D2E/DX2 =    0.4289             !
 ! R28   R(16,21)                1.4017         D2E/DX2 =    0.3919             !
 ! R29   R(16,34)                1.0861         D2E/DX2 =    0.3626             !
 ! R30   R(17,18)                1.4023         D2E/DX2 =    0.3814             !
 ! R31   R(17,35)                1.0848         D2E/DX2 =    0.3661             !
 ! R32   R(18,19)                1.3764         D2E/DX2 =    0.4364             !
 ! R33   R(18,36)                1.0848         D2E/DX2 =    0.3656             !
 ! R34   R(19,20)                1.4172         D2E/DX2 =    0.3582             !
 ! R35   R(19,37)                1.0834         D2E/DX2 =    0.369              !
 ! R36   R(20,21)                1.4284         D2E/DX2 =    0.2854             !
 ! R37   R(20,25)                1.4353         D2E/DX2 =    0.345              !
 ! R38   R(21,22)                1.4312         D2E/DX2 =    0.348              !
 ! R39   R(22,23)                1.3572         D2E/DX2 =    0.4849             !
 ! R40   R(22,38)                1.0861         D2E/DX2 =    0.3624             !
 ! R41   R(23,24)                1.436          D2E/DX2 =    0.3307             !
 ! R42   R(23,39)                1.0841         D2E/DX2 =    0.3688             !
 ! R43   R(24,25)                1.4701         D2E/DX2 =    0.3243             !
 ! R44   R(25,26)                1.4137         D2E/DX2 =    0.4143             !
 ! R45   R(26,41)                1.0818         D2E/DX2 =    0.3749             !
 ! A1    A(13,1,31)            108.3794         D2E/DX2 =    0.2973             !
 ! A2    A(4,3,15)             116.3606         D2E/DX2 =    0.3541             !
 ! A3    A(3,4,26)             123.1641         D2E/DX2 =    0.1531             !
 ! A4    A(3,4,42)             125.623          D2E/DX2 =    0.1026             !
 ! A5    A(26,4,42)            111.2129         D2E/DX2 =    0.1491             !
 ! A6    A(6,5,7)              119.3423         D2E/DX2 =    0.0814             !
 ! A7    A(6,5,29)             120.4338         D2E/DX2 =    0.0823             !
 ! A8    A(7,5,29)             120.2239         D2E/DX2 =    0.0823             !
 ! A9    A(5,6,11)             121.2153         D2E/DX2 =    0.0835             !
 ! A10   A(5,6,30)             120.3811         D2E/DX2 =    0.0839             !
 ! A11   A(11,6,30)            118.4037         D2E/DX2 =    0.0844             !
 ! A12   A(5,7,8)              120.5387         D2E/DX2 =    0.0814             !
 ! A13   A(5,7,27)             119.9545         D2E/DX2 =    0.0831             !
 ! A14   A(8,7,27)             119.5068         D2E/DX2 =    0.0834             !
 ! A15   A(7,8,12)             121.5661         D2E/DX2 =    0.0844             !
 ! A16   A(7,8,28)             118.0474         D2E/DX2 =    0.0898             !
 ! A17   A(12,8,28)            120.3866         D2E/DX2 =    0.0848             !
 ! A18   A(10,9,11)            121.2676         D2E/DX2 =    0.0789             !
 ! A19   A(10,9,33)            120.1042         D2E/DX2 =    0.0823             !
 ! A20   A(11,9,33)            118.6281         D2E/DX2 =    0.0828             !
 ! A21   A(9,10,13)            120.6376         D2E/DX2 =    0.0831             !
 ! A22   A(9,10,32)            122.0015         D2E/DX2 =    0.0796             !
 ! A23   A(13,10,32)           117.3609         D2E/DX2 =    0.0805             !
 ! A24   A(6,11,9)             120.6484         D2E/DX2 =    0.1082             !
 ! A25   A(6,11,12)            119.7454         D2E/DX2 =    0.0827             !
 ! A26   A(9,11,12)            119.6063         D2E/DX2 =    0.0806             !
 ! A27   A(8,12,11)            117.5924         D2E/DX2 =    0.088              !
 ! A28   A(8,12,14)            122.9635         D2E/DX2 =    0.1233             !
 ! A29   A(11,12,14)           119.4441         D2E/DX2 =    0.0883             !
 ! A30   A(1,13,10)            116.6447         D2E/DX2 =    0.1994             !
 ! A31   A(1,13,14)            122.3046         D2E/DX2 =    0.2303             !
 ! A32   A(10,13,14)           121.0507         D2E/DX2 =    0.0926             !
 ! A33   A(12,14,13)           117.9937         D2E/DX2 =    0.0928             !
 ! A34   A(12,14,15)           121.4714         D2E/DX2 =    0.2645             !
 ! A35   A(13,14,15)           120.5348         D2E/DX2 =    0.3266             !
 ! A36   A(3,15,14)            121.4856         D2E/DX2 =    0.2506             !
 ! A37   A(3,15,40)            118.3101         D2E/DX2 =    0.1431             !
 ! A38   A(14,15,40)           120.2043         D2E/DX2 =    0.1252             !
 ! A39   A(17,16,21)           121.4051         D2E/DX2 =    0.0832             !
 ! A40   A(17,16,34)           120.0935         D2E/DX2 =    0.084              !
 ! A41   A(21,16,34)           118.5015         D2E/DX2 =    0.0844             !
 ! A42   A(16,17,18)           119.5799         D2E/DX2 =    0.0807             !
 ! A43   A(16,17,35)           120.2486         D2E/DX2 =    0.0823             !
 ! A44   A(18,17,35)           120.1715         D2E/DX2 =    0.0822             !
 ! A45   A(17,18,19)           120.2448         D2E/DX2 =    0.0811             !
 ! A46   A(17,18,36)           120.02           D2E/DX2 =    0.0829             !
 ! A47   A(19,18,36)           119.7351         D2E/DX2 =    0.083              !
 ! A48   A(18,19,20)           121.602          D2E/DX2 =    0.0841             !
 ! A49   A(18,19,37)           118.3128         D2E/DX2 =    0.0891             !
 ! A50   A(20,19,37)           120.0852         D2E/DX2 =    0.0845             !
 ! A51   A(19,20,21)           117.6553         D2E/DX2 =    0.0871             !
 ! A52   A(19,20,25)           122.8045         D2E/DX2 =    0.1213             !
 ! A53   A(21,20,25)           119.5402         D2E/DX2 =    0.0878             !
 ! A54   A(16,21,20)           119.5129         D2E/DX2 =    0.0821             !
 ! A55   A(16,21,22)           120.8341         D2E/DX2 =    0.1064             !
 ! A56   A(20,21,22)           119.653          D2E/DX2 =    0.0787             !
 ! A57   A(21,22,23)           121.5675         D2E/DX2 =    0.0763             !
 ! A58   A(21,22,38)           118.0791         D2E/DX2 =    0.0824             !
 ! A59   A(23,22,38)           120.3534         D2E/DX2 =    0.0812             !
 ! A60   A(22,23,24)           121.8009         D2E/DX2 =    0.082              !
 ! A61   A(22,23,39)           122.1251         D2E/DX2 =    0.0784             !
 ! A62   A(24,23,39)           116.074          D2E/DX2 =    0.0788             !
 ! A63   A(2,24,23)            120.4191         D2E/DX2 =    0.2159             !
 ! A64   A(2,24,25)            121.6194         D2E/DX2 =    0.2303             !
 ! A65   A(23,24,25)           117.9614         D2E/DX2 =    0.0864             !
 ! A66   A(20,25,24)           119.477          D2E/DX2 =    0.0991             !
 ! A67   A(20,25,26)           121.53           D2E/DX2 =    0.2837             !
 ! A68   A(24,25,26)           118.9929         D2E/DX2 =    0.3852             !
 ! A69   A(4,26,25)            120.2014         D2E/DX2 =    0.2763             !
 ! A70   A(4,26,41)            116.0843         D2E/DX2 =    0.1355             !
 ! A71   A(25,26,41)           123.7143         D2E/DX2 =    0.1336             !
 ! D1    D(31,1,13,10)        -180.0            D2E/DX2 =    0.0261             !
 ! D2    D(31,1,13,14)           0.0            D2E/DX2 =    0.0192             !
 ! D3    D(15,3,4,26)          179.9999         D2E/DX2 =    0.018              !
 ! D4    D(15,3,4,42)           -0.0001         D2E/DX2 =    0.0117             !
 ! D5    D(4,3,15,14)          180.0            D2E/DX2 =    0.0195             !
 ! D6    D(4,3,15,40)            0.0            D2E/DX2 =    0.016              !
 ! D7    D(3,4,26,25)          180.0            D2E/DX2 =    0.0098             !
 ! D8    D(3,4,26,41)            0.0            D2E/DX2 =    0.0098             !
 ! D9    D(42,4,26,25)           0.0            D2E/DX2 =    0.0203             !
 ! D10   D(42,4,26,41)         180.0            D2E/DX2 =    0.025              !
 ! D11   D(7,5,6,11)             0.0            D2E/DX2 =    0.0087             !
 ! D12   D(7,5,6,30)           180.0            D2E/DX2 =    0.0082             !
 ! D13   D(29,5,6,11)         -180.0            D2E/DX2 =    0.0087             !
 ! D14   D(29,5,6,30)            0.0            D2E/DX2 =    0.0093             !
 ! D15   D(6,5,7,8)              0.0            D2E/DX2 =    0.0089             !
 ! D16   D(6,5,7,27)          -180.0            D2E/DX2 =    0.008              !
 ! D17   D(29,5,7,8)           180.0            D2E/DX2 =    0.0081             !
 ! D18   D(29,5,7,27)            0.0            D2E/DX2 =    0.0088             !
 ! D19   D(5,6,11,9)           180.0            D2E/DX2 =    0.0062             !
 ! D20   D(5,6,11,12)            0.0            D2E/DX2 =    0.007              !
 ! D21   D(30,6,11,9)            0.0            D2E/DX2 =    0.0074             !
 ! D22   D(30,6,11,12)         180.0            D2E/DX2 =    0.0071             !
 ! D23   D(5,7,8,12)             0.0            D2E/DX2 =    0.0087             !
 ! D24   D(5,7,8,28)          -180.0            D2E/DX2 =    0.0077             !
 ! D25   D(27,7,8,12)          180.0            D2E/DX2 =    0.0086             !
 ! D26   D(27,7,8,28)            0.0            D2E/DX2 =    0.0089             !
 ! D27   D(7,8,12,11)            0.0            D2E/DX2 =    0.0065             !
 ! D28   D(7,8,12,14)          180.0            D2E/DX2 =    0.0063             !
 ! D29   D(28,8,12,11)         180.0            D2E/DX2 =    0.0065             !
 ! D30   D(28,8,12,14)           0.0            D2E/DX2 =    0.0069             !
 ! D31   D(11,9,10,13)           0.0            D2E/DX2 =    0.0073             !
 ! D32   D(11,9,10,32)         180.0            D2E/DX2 =    0.0086             !
 ! D33   D(33,9,10,13)        -180.0            D2E/DX2 =    0.0076             !
 ! D34   D(33,9,10,32)           0.0            D2E/DX2 =    0.009              !
 ! D35   D(10,9,11,6)         -180.0            D2E/DX2 =    0.0056             !
 ! D36   D(10,9,11,12)           0.0            D2E/DX2 =    0.0065             !
 ! D37   D(33,9,11,6)            0.0            D2E/DX2 =    0.0071             !
 ! D38   D(33,9,11,12)        -180.0            D2E/DX2 =    0.0065             !
 ! D39   D(9,10,13,1)          180.0            D2E/DX2 =    0.0088             !
 ! D40   D(9,10,13,14)           0.0            D2E/DX2 =    0.0065             !
 ! D41   D(32,10,13,1)           0.0            D2E/DX2 =    0.0097             !
 ! D42   D(32,10,13,14)        180.0            D2E/DX2 =    0.0067             !
 ! D43   D(6,11,12,8)            0.0            D2E/DX2 =    0.0051             !
 ! D44   D(6,11,12,14)         180.0            D2E/DX2 =    0.0047             !
 ! D45   D(9,11,12,8)         -180.0            D2E/DX2 =    0.0044             !
 ! D46   D(9,11,12,14)           0.0            D2E/DX2 =    0.0047             !
 ! D47   D(8,12,14,13)         180.0            D2E/DX2 =    0.0043             !
 ! D48   D(8,12,14,15)          -0.0001         D2E/DX2 =    0.0048             !
 ! D49   D(11,12,14,13)          0.0            D2E/DX2 =    0.0043             !
 ! D50   D(11,12,14,15)        179.9999         D2E/DX2 =    0.0055             !
 ! D51   D(1,13,14,12)        -180.0            D2E/DX2 =    0.0099             !
 ! D52   D(1,13,14,15)           0.0001         D2E/DX2 =    0.0118             !
 ! D53   D(10,13,14,12)          0.0            D2E/DX2 =    0.0052             !
 ! D54   D(10,13,14,15)       -179.9999         D2E/DX2 =    0.0065             !
 ! D55   D(12,14,15,3)         179.9999         D2E/DX2 =    0.0174             !
 ! D56   D(12,14,15,40)         -0.0001         D2E/DX2 =    0.0089             !
 ! D57   D(13,14,15,3)          -0.0001         D2E/DX2 =    0.0133             !
 ! D58   D(13,14,15,40)        179.9999         D2E/DX2 =    0.0081             !
 ! D59   D(21,16,17,18)          0.0            D2E/DX2 =    0.0087             !
 ! D60   D(21,16,17,35)        180.0            D2E/DX2 =    0.0084             !
 ! D61   D(34,16,17,18)        180.0            D2E/DX2 =    0.0082             !
 ! D62   D(34,16,17,35)          0.0            D2E/DX2 =    0.0092             !
 ! D63   D(17,16,21,20)          0.0            D2E/DX2 =    0.0069             !
 ! D64   D(17,16,21,22)       -180.0            D2E/DX2 =    0.0062             !
 ! D65   D(34,16,21,20)        180.0            D2E/DX2 =    0.0072             !
 ! D66   D(34,16,21,22)          0.0            D2E/DX2 =    0.0076             !
 ! D67   D(16,17,18,19)          0.0            D2E/DX2 =    0.0087             !
 ! D68   D(16,17,18,36)       -180.0            D2E/DX2 =    0.008              !
 ! D69   D(35,17,18,19)        180.0            D2E/DX2 =    0.0079             !
 ! D70   D(35,17,18,36)          0.0            D2E/DX2 =    0.0087             !
 ! D71   D(17,18,19,20)          0.0            D2E/DX2 =    0.0085             !
 ! D72   D(17,18,19,37)       -180.0            D2E/DX2 =    0.0075             !
 ! D73   D(36,18,19,20)        180.0            D2E/DX2 =    0.0086             !
 ! D74   D(36,18,19,37)          0.0            D2E/DX2 =    0.0088             !
 ! D75   D(18,19,20,21)          0.0            D2E/DX2 =    0.0064             !
 ! D76   D(18,19,20,25)        180.0            D2E/DX2 =    0.006              !
 ! D77   D(37,19,20,21)        180.0            D2E/DX2 =    0.0062             !
 ! D78   D(37,19,20,25)          0.0            D2E/DX2 =    0.0065             !
 ! D79   D(19,20,21,16)          0.0            D2E/DX2 =    0.0049             !
 ! D80   D(19,20,21,22)       -180.0            D2E/DX2 =    0.0044             !
 ! D81   D(25,20,21,16)       -180.0            D2E/DX2 =    0.0043             !
 ! D82   D(25,20,21,22)          0.0            D2E/DX2 =    0.0046             !
 ! D83   D(19,20,25,24)        180.0            D2E/DX2 =    0.0045             !
 ! D84   D(19,20,25,26)          0.0            D2E/DX2 =    0.0044             !
 ! D85   D(21,20,25,24)          0.0            D2E/DX2 =    0.0043             !
 ! D86   D(21,20,25,26)        180.0            D2E/DX2 =    0.0045             !
 ! D87   D(16,21,22,23)       -180.0            D2E/DX2 =    0.0052             !
 ! D88   D(16,21,22,38)          0.0            D2E/DX2 =    0.0068             !
 ! D89   D(20,21,22,23)          0.0            D2E/DX2 =    0.0062             !
 ! D90   D(20,21,22,38)       -180.0            D2E/DX2 =    0.0065             !
 ! D91   D(21,22,23,24)          0.0            D2E/DX2 =    0.0072             !
 ! D92   D(21,22,23,39)        180.0            D2E/DX2 =    0.0089             !
 ! D93   D(38,22,23,24)        180.0            D2E/DX2 =    0.0076             !
 ! D94   D(38,22,23,39)          0.0            D2E/DX2 =    0.0093             !
 ! D95   D(22,23,24,2)         180.0            D2E/DX2 =    0.0097             !
 ! D96   D(22,23,24,25)          0.0            D2E/DX2 =    0.007              !
 ! D97   D(39,23,24,2)           0.0            D2E/DX2 =    0.0122             !
 ! D98   D(39,23,24,25)        180.0            D2E/DX2 =    0.0077             !
 ! D99   D(2,24,25,20)        -180.0            D2E/DX2 =    0.0115             !
 ! D100  D(2,24,25,26)           0.0            D2E/DX2 =    0.0111             !
 ! D101  D(23,24,25,20)          0.0            D2E/DX2 =    0.0058             !
 ! D102  D(23,24,25,26)       -180.0            D2E/DX2 =    0.0056             !
 ! D103  D(20,25,26,4)         180.0            D2E/DX2 =    0.0135             !
 ! D104  D(20,25,26,41)          0.0            D2E/DX2 =    0.0078             !
 ! D105  D(24,25,26,4)           0.0            D2E/DX2 =    0.0151             !
 ! D106  D(24,25,26,41)        180.0            D2E/DX2 =    0.0101             !
 --------------------------------------------------------------------------------
 Trust Radius=3.00D-01 FncErr=1.00D-07 GrdErr=1.00D-06 EigMax=2.50D+02 EigMin=1.00D-04
 Number of steps in this run=    232 maximum allowed number of steps=    252.
 GradGradGradGradGradGradGradGradGradGradGradGradGradGradGradGradGradGrad

                          Input orientation:                          
 ---------------------------------------------------------------------
 Center     Atomic      Atomic             Coordinates (Angstroms)
 Number     Number       Type             X           Y           Z
 ---------------------------------------------------------------------
      1          8           0        2.007405    2.691611    0.004967
      2          8           0       -1.693820   -2.346924   -0.002932
      3          7           0        0.557931    0.570833    0.001671
      4          7           0       -0.574467   -0.108578    0.000465
      5          6           0        6.595687   -1.779226   -0.000277
      6          6           0        6.623850   -0.405270    0.001655
      7          6           0        5.359383   -2.441237   -0.001480
      8          6           0        4.181522   -1.725276   -0.000739
      9          6           0        5.475941    1.770544    0.004448
     10          6           0        4.329532    2.515280    0.005237
     11          6           0        5.432768    0.350308    0.002448
     12          6           0        4.174807   -0.314767    0.001236
     13          6           0        3.069621    1.891126    0.004081
     14          6           0        2.952812    0.469462    0.002062
     15          6           0        1.678221   -0.147736    0.000912
     16          6           0       -6.688053    0.027221   -0.000703
     17          6           0       -6.852275    1.397673    0.001188
     18          6           0       -5.723764    2.230080    0.002609
     19          6           0       -4.460005    1.684719    0.002123
     20          6           0       -4.256408    0.282246    0.000196
     21          6           0       -5.413279   -0.555658   -0.001239
     22          6           0       -5.257160   -1.978359   -0.003205
     23          6           0       -4.030147   -2.558502   -0.003748
     24          6           0       -2.824376   -1.778636   -0.002384
     25          6           0       -2.950777   -0.313991   -0.000352
     26          6           0       -1.777747    0.475007    0.001018
     27          1           0        5.325558   -3.525661   -0.003007
     28          1           0        3.249910   -2.277532   -0.001720
     29          1           0        7.519481   -2.347727   -0.000867
     30          1           0        7.571855    0.124698    0.002609
     31          1           0        1.189223    2.126787    0.003993
     32          1           0        4.348584    3.598886    0.006760
     33          1           0        6.444249    2.261517    0.005352
     34          1           0       -7.556308   -0.625315   -0.001813
     35          1           0       -7.847725    1.828760    0.001573
     36          1           0       -5.844558    3.308166    0.004099
     37          1           0       -3.610346    2.356827    0.003257
     38          1           0       -6.153971   -2.591070   -0.004266
     39          1           0       -3.901416   -3.634899   -0.005234
     40          1           0        1.595435   -1.231911   -0.000628
     41          1           0       -1.781733    1.556823    0.002538
     42          1           0       -0.661449   -1.175631   -0.001055
 ---------------------------------------------------------------------
                    Distance matrix (angstroms):
                    1          2          3          4          5
     1  O    0.000000
     2  O    6.251876   0.000000
     3  N    2.568790   3.685608   0.000000
     4  N    3.808824   2.502629   1.320578   0.000000
     5  C    6.406305   8.308924   6.478988   7.362213   0.000000
     6  C    5.558980   8.541292   6.143953   7.204429   1.374246
     7  C    6.130410   7.053833   5.668026   6.375882   1.402395
     8  C    4.922978   5.908138   4.289817   5.023261   2.414768
     9  C    3.588747   8.267954   5.062226   6.335499   3.722193
    10  C    2.328813   7.740921   4.243332   5.561822   4.855746
    11  C    4.149075   7.619931   4.879823   6.024737   2.426376
    12  C    3.706205   6.210512   3.723719   4.753748   2.829365
    13  C    1.330068   6.375852   2.837564   4.156706   5.089661
    14  C    2.414902   5.433529   2.397026   3.574330   4.281021
    15  C    2.858368   4.025805   1.330937   2.253029   5.181046
    16  C    9.094503   5.529822   7.266347   6.115094  13.406006
    17  C    8.953671   6.374299   7.456194   6.455979  13.818118
    18  C    7.744933   6.098315   6.497137   5.655491  12.955440
    19  C    6.545321   4.889371   5.140080   4.279407  11.585649
    20  C    6.711215   3.671430   4.822981   3.702625  11.046159
    21  C    8.100083   4.128319   6.076540   4.859422  12.071139
    22  C    8.636120   3.582350   6.349305   5.042192  11.854520
    23  C    8.000987   2.345889   5.553668   4.236020  10.654372
    24  C    6.582497   1.265349   4.118254   2.801998   9.420064
    25  C    5.798037   2.390139   3.618556   2.385172   9.658256
    26  C    4.386425   2.823182   2.337643   1.337331   8.671561
    27  H    7.047317   7.117660   6.285822   6.818121   2.159461
    28  H    5.122133   4.944217   3.919176   4.396615   3.382682
    29  H    7.468463   9.213301   7.548588   8.397963   1.084706
    30  H    6.127981   9.589665   7.028098   8.149661   2.139589
    31  H    0.994208   5.322224   1.679145   2.847362   6.669844
    32  H    2.510830   8.477227   4.851616   6.162934   5.828688
    33  H    4.457641   9.352323   6.124309   7.408087   4.043584
    34  H   10.122581   6.110050   8.201930   7.000938  14.198961
    35  H    9.892831   7.436861   8.499261   7.526856  14.887234
    36  H    7.876132   7.014893   6.963107   6.280765  13.440286
    37  H    5.627718   5.079211   4.534789   3.910856  11.012269
    38  H    9.721875   4.466829   7.419386   6.106853  12.775481
    39  H    8.656731   2.555849   6.129764   4.848047  10.659865
    40  H    3.945095   3.473105   2.079978   2.443431   5.030117
    41  H    3.955415   3.904741   2.538937   2.056953   9.017228
    42  H    4.698763   1.561320   2.130031   1.070593   7.282195
                    6          7          8          9         10
     6  C    0.000000
     7  C    2.396675   0.000000
     8  C    2.776218   1.378389   0.000000
     9  C    2.460055   4.213398   3.727774   0.000000
    10  C    3.713963   5.062381   4.243142   1.367072   0.000000
    11  C    1.410523   2.792512   2.423567   1.420893   2.429864
    12  C    2.450715   2.434153   1.410526   2.457942   2.834276
    13  C    4.231547   4.900246   3.783479   2.409339   1.406039
    14  C    3.773815   3.776740   2.515275   2.838837   2.465915
    15  C    4.952330   4.337177   2.958910   4.254701   3.757808
    16  C   13.318927  12.297723  11.009946  12.288285  11.295028
    17  C   13.596197  12.800853  11.467236  12.333854  11.237521
    18  C   12.625714  12.027358  10.665812  11.209128  10.057341
    19  C   11.279180  10.651005   9.289998   9.936317   8.828692
    20  C   10.901958   9.994037   8.673454   9.845489   8.871574
    21  C   12.038069  10.936437   9.665827  11.134916  10.215335
    22  C   11.984700  10.626628   9.442074  11.368983  10.587611
    23  C   10.869411   9.390262   8.253835  10.445401   9.778936
    24  C    9.547520   8.210539   7.006101   9.027291   8.343631
    25  C    9.575063   8.578108   7.270586   8.680719   7.810743
    26  C    8.447587   7.709936   6.352491   7.368474   6.439067
    27  H    3.379708   1.084952   2.133122   5.298345   6.122508
    28  H    3.858607   2.115815   1.083000   4.619758   4.912909
    29  H    2.138995   2.162122   3.395499   4.597416   5.815896
    30  H    1.086085   3.388079   3.862224   2.664895   4.028342
    31  H    5.995540   6.185233   4.877732   4.301495   3.164249
    32  H    4.605446   6.124122   5.326787   2.147970   1.083774
    33  H    2.672831   4.826270   4.584156   1.085668   2.129888
    34  H   14.181866  13.042724  11.789257  13.250649  12.293762
    35  H   14.642998  13.880223  12.543284  13.323793  12.196595
    36  H   13.009643  12.593012  11.218638  11.424446  10.204939
    37  H   10.600376  10.172388   8.796408   9.105182   7.941459
    38  H   12.963429  11.514329  10.371694  12.420894  11.660992
    39  H   11.009622   9.337410   8.305454  10.823757  10.274888
    40  H    5.095910   3.953450   2.632727   4.906433   4.638616
    41  H    8.631549   8.184133   6.806805   7.260820   6.185968
    42  H    7.325917   6.152412   4.874062   6.807902   6.207476
                   11         12         13         14         15
    11  C    0.000000
    12  C    1.422952   0.000000
    13  C    2.821097   2.467268   0.000000
    14  C    2.482817   1.451994   1.426456   0.000000
    15  C    3.787436   2.502167   2.468392   1.416163   0.000000
    16  C   12.125127  10.868242   9.934101   9.651003   8.368104
    17  C   12.329610  11.159256   9.934160   9.848925   8.669352
    18  C   11.313786  10.220467   8.799915   8.853403   7.774535
    19  C    9.982366   8.863291   7.532455   7.511772   6.405913
    20  C    9.689415   8.452326   7.500614   7.211651   5.950186
    21  C   10.883820   9.591112   8.828724   8.428663   7.103224
    22  C   10.940625   9.577555   9.181952   8.567117   7.172915
    23  C    9.899898   8.506212   8.378900   7.611197   6.196555
    24  C    8.527183   7.150629   6.943083   6.199183   4.788865
    25  C    8.409824   7.125584   6.411533   5.955348   4.631983
    26  C    7.211594   6.004719   5.049988   4.730563   3.511627
    27  H    3.877455   3.410878   5.867784   4.646607   4.971263
    28  H    3.416201   2.169767   4.172559   2.763016   2.646931
    29  H    3.410832   3.914048   6.145661   5.365727   6.241817
    30  H    2.150951   3.425356   4.836360   4.631891   5.899927
    31  H    4.600387   3.856800   1.895108   2.420119   2.326496
    32  H    3.424724   3.917513   2.133587   3.426586   4.600874
    33  H    2.162365   3.433310   3.394894   3.924487   5.340368
    34  H   13.025666  11.735226  10.919839  10.565991   9.246871
    35  H   13.362535  12.212125  10.917525  10.885739   9.728833
    36  H   11.658774  10.654263   9.026106   9.244023   8.278616
    37  H    9.263047   8.230798   6.696181   6.829143   5.851648
    38  H   11.954258  10.576637  10.254989   9.607310   8.204459
    39  H   10.149331   8.732050   8.895639   7.989135   6.579719
    40  H    4.150729   2.737575   3.453492   2.176499   1.087333
    41  H    7.314691   6.243654   4.862858   4.857805   3.857046
    42  H    6.282355   4.912277   4.829690   3.971049   2.555510
                   16         17         18         19         20
    16  C    0.000000
    17  C    1.380257   0.000000
    18  C    2.404673   1.402299   0.000000
    19  C    2.776960   2.409430   1.376410   0.000000
    20  C    2.444982   2.825369   2.438688   1.417176   0.000000
    21  C    1.401712   2.426153   2.802990   2.434755   1.428438
    22  C    2.463699   3.733899   4.234230   3.748816   2.472215
    23  C    3.708158   4.859603   5.079261   4.264942   2.849746
    24  C    4.264871   5.129612   4.947350   3.830161   2.509573
    25  C    3.752820   4.260456   3.763211   2.504519   1.435329
    26  C    4.930681   5.157727   4.318718   2.942433   2.486145
    27  H   12.527962  13.135405  12.458575  11.086268  10.310879
    28  H   10.201715  10.749944  10.042181   8.668463   7.930780
    29  H   14.404666  14.851781  14.012132  12.639965  12.065998
    30  H   14.260241  14.480193  13.461281  12.132573  11.829312
    31  H    8.152280   8.074485   6.913758   5.666498   5.749542
    32  H   11.600181  11.415105  10.164931   9.014172   9.222040
    33  H   13.321016  13.324556  12.168053  10.919499  10.882168
    34  H    1.086127   2.141997   3.392863   3.863077   3.422428
    35  H    2.142519   1.084784   2.161544   3.390781   3.910149
    36  H    3.387640   2.159974   1.084833   2.133675   3.417372
    37  H    3.859969   3.380841   2.117215   1.083352   2.172854
    38  H    2.672209   4.049410   4.840311   4.599123   3.443357
    39  H    4.601793   5.833901   6.141579   5.348871   3.933202
    40  H    8.378639   8.847516   8.096670   6.721243   6.044563
    41  H    5.139229   5.073040   3.999110   2.681325   2.783625
    42  H    6.145470   6.704343   6.101303   4.755064   3.879321
                   21         22         23         24         25
    21  C    0.000000
    22  C    1.431242   0.000000
    23  C    2.434018   1.357249   0.000000
    24  C    2.863232   2.440968   1.435993   0.000000
    25  C    2.474332   2.844210   2.490559   1.470091   0.000000
    26  C    3.778805   4.257386   3.778294   2.484824   1.413690
    27  H   11.141972  10.695236   9.405564   8.335078   8.877644
    28  H    8.832650   8.512329   7.285478   6.094740   6.504154
    29  H   13.056332  12.781979  11.551552  10.359500  10.665945
    30  H   13.002946  13.000250  11.908235  10.569026  10.531773
    31  H    7.126610   7.642520   7.013830   5.600120   4.805935
    32  H   10.609159  11.107478  10.397916   8.964885   8.281987
    33  H   12.187595  12.445866  11.530205  10.110900   9.741652
    34  H    2.144161   2.667736   4.021321   4.870455   4.616042
    35  H    3.407636   4.604911   5.815668   6.184445   5.345230
    36  H    3.887823   5.319063   6.140841   5.915834   4.636163
    37  H    3.425370   4.637442   4.933228   4.209493   2.751056
    38  H    2.165995   1.086134   2.124074   3.427281   3.930084
    39  H    3.430375   2.140601   1.084069   2.146098   3.454298
    40  H    7.041264   6.893131   5.779882   4.453498   4.637955
    41  H    4.201276   4.957432   4.689489   3.494627   2.206041
    42  H    4.792103   4.665290   3.641492   2.245411   2.446108
                   26         27         28         29         30
    26  C    0.000000
    27  H    8.152442   0.000000
    28  H    5.731825   2.422012   0.000000
    29  H    9.716289   2.490147   4.270148   0.000000
    30  H    9.356162   4.286141   4.944687   2.472983   0.000000
    31  H    3.395776   7.004248   4.862560   7.751997   6.689271
    32  H    6.876814   7.191227   5.978247   6.739202   4.739142
    33  H    8.413849   5.894317   5.550388   4.733000   2.416091
    34  H    5.882388  13.204336  10.931797  15.173863  15.146744
    35  H    6.219106  14.219889  11.832969  15.924637  15.513455
    36  H    4.956385  13.094760  10.672835  14.511605  13.788930
    37  H    2.626722  10.698322   8.278914  12.083290  11.402807
    38  H    5.343426  11.517511   9.409107  13.675618  13.991917
    39  H    4.626158   9.227621   7.279005  11.493203  12.073548
    40  H    3.780467   4.378939   1.957194   6.028214   6.128457
    41  H    1.081824   8.737577   6.326115  10.087522   9.462588
    42  H    1.992669   6.431711   4.063609   8.264468   8.335356
                   31         32         33         34         35
    31  H    0.000000
    32  H    3.485490   0.000000
    33  H    5.256753   2.486035   0.000000
    34  H    9.168337  12.632118  14.295085   0.000000
    35  H    9.041861  12.324095  14.298525   2.471319   0.000000
    36  H    7.132302  10.197287  12.333298   4.289801   2.490247
    37  H    4.805079   8.055264  10.055047   4.946091   4.270157
    38  H    8.728158  12.190953  13.500476   2.414694   4.733258
    39  H    7.688414  10.972250  11.908006   4.734538   6.739805
    40  H    3.383176   5.560259   5.976208   9.171825   9.926782
    41  H    3.025134   6.461487   8.256111   6.173125   6.072085
    42  H    3.785627   6.920730   7.893350   6.916786   7.789026
                   36         37         38         39         40
    36  H    0.000000
    37  H    2.428322   0.000000
    38  H    5.907350   5.563432   0.000000
    39  H    7.209858   5.998798   2.482658   0.000000
    40  H    8.715838   6.322912   7.867695   5.999145   0.000000
    41  H    4.424224   1.995954   6.026735   5.607771   4.379762
    42  H    6.853399   4.601550   5.671973   4.067604   2.257587
                   41         42
    41  H    0.000000
    42  H    2.953193   0.000000
 Stoichiometry    C22H16N2O2
 Framework group  C1[X(C22H16N2O2)]
 Deg. of freedom   120
 Full point group                 C1      NOp   1
 Largest Abelian subgroup         C1      NOp   1
 Largest concise Abelian subgroup C1      NOp   1
                         Standard orientation:                         
 ---------------------------------------------------------------------
 Center     Atomic      Atomic             Coordinates (Angstroms)
 Number     Number       Type             X           Y           Z
 ---------------------------------------------------------------------
      1          8           0        2.008651   -2.688402    0.000005
      2          8           0       -1.696177    2.347489    0.000006
      3          7           0        0.557660   -0.568659    0.000001
      4          7           0       -0.575224    0.109942    0.000002
      5          6           0        6.593734    1.785719   -0.000006
      6          6           0        6.622880    0.411782   -0.000002
      7          6           0        5.356956    2.446847   -0.000007
      8          6           0        4.179608    1.730043   -0.000005
      9          6           0        5.476527   -1.764854    0.000003
     10          6           0        4.330652   -2.510410    0.000005
     11          6           0        5.432339   -0.344648   -0.000000
     12          6           0        4.173902    0.319528   -0.000001
     13          6           0        3.070294   -1.887157    0.000004
     14          6           0        2.952468   -0.465576    0.000001
     15          6           0        1.677436    0.150711    0.000001
     16          6           0       -6.688711   -0.030229   -0.000002
     17          6           0       -6.851953   -1.400799   -0.000006
     18          6           0       -5.722846   -2.232400   -0.000007
     19          6           0       -4.459478   -1.686135   -0.000005
     20          6           0       -4.256884   -0.283515   -0.000001
     21          6           0       -5.414354    0.553562    0.000000
     22          6           0       -5.259253    1.976376    0.000004
     23          6           0       -4.032656    2.557396    0.000006
     24          6           0       -2.826327    1.778393    0.000004
     25          6           0       -2.951680    0.313656    0.000001
     26          6           0       -1.778086   -0.474504   -0.000000
     27          1           0        5.322356    3.531247   -0.000010
     28          1           0        3.247601    2.281633   -0.000007
     29          1           0        7.517121    2.354881   -0.000007
     30          1           0        7.571263   -0.117509   -0.000001
     31          1           0        1.190065   -2.124163    0.000004
     32          1           0        4.350478   -3.594004    0.000007
     33          1           0        6.445186   -2.255135    0.000004
     34          1           0       -7.557433    0.621687   -0.000001
     35          1           0       -7.847094   -1.832598   -0.000007
     36          1           0       -5.842869   -3.310573   -0.000010
     37          1           0       -3.609338   -2.357636   -0.000006
     38          1           0       -6.156503    2.588446    0.000005
     39          1           0       -3.904694    3.633887    0.000008
     40          1           0        1.593875    1.234828    0.000001
     41          1           0       -1.781297   -1.556323   -0.000002
     42          1           0       -0.662969    1.176933    0.000004
 ---------------------------------------------------------------------
 Rotational constants (GHZ):           0.5621806           0.0762137           0.0671151
 Standard basis: 6-31G(d,p) (6D, 7F)
 There are   470 symmetry adapted cartesian basis functions of A   symmetry.
 There are   470 symmetry adapted basis functions of A   symmetry.
   470 basis functions,   840 primitive gaussians,   470 cartesian basis functions
    89 alpha electrons       89 beta electrons
       nuclear repulsion energy      1998.3692356253 Hartrees.
 NAtoms=   42 NActive=   42 NUniq=   42 SFac= 1.00D+00 NAtFMM=   60 NAOKFM=F Big=F
 Integral buffers will be    131072 words long.
 Raffenetti 1 integral format.
 Two-electron integral symmetry is turned on.
 One-electron integrals computed using PRISM.
 NBasis=   470 RedAO= T EigKep=  2.41D-04  NBF=   470
 NBsUse=   470 1.00D-06 EigRej= -1.00D+00 NBFU=   470
 Initial guess from the checkpoint file:  "TD_PY101_keto_CB_2.chk"
 B after Tr=    -0.000000    0.000000   -0.000000
         Rot=    1.000000   -0.000000   -0.000000    0.000000 Ang=   0.00 deg.
 Requested convergence on RMS density matrix=1.00D-08 within 128 cycles.
 Requested convergence on MAX density matrix=1.00D-06.
 Requested convergence on             energy=1.00D-06.
 No special actions if energy rises.
 SCF Done:  E(RCAM-B3LYP) =  -1107.35508191     A.U. after    1 cycles
            NFock=  1  Conv=0.47D-08     -V/T= 2.0091
 DoSCS=F DFT=T ScalE2(SS,OS)=  1.000000  1.000000
 ExpMin= 1.61D-01 ExpMax= 5.48D+03 ExpMxC= 8.25D+02 IAcc=3 IRadAn=         5 AccDes= 0.00D+00
 HarFok:  IExCor=  205 AccDes= 0.00D+00 IRadAn=         5 IDoV=-2 UseB2=F ITyADJ=14
 ICtDFT= 12500011 ScaDFX=  1.000000  1.000000  1.000000  1.000000
 GSVD:  LWork=        -884 too small for GESVD, short by        3770 words or        3770 for optimal perf.
 Range of M.O.s used for correlation:    27   470
 NBasis=   470 NAE=    89 NBE=    89 NFC=    26 NFV=     0
 NROrb=    444 NOA=    63 NOB=    63 NVA=   381 NVB=   381
 Orbital symmetries:
       Occupied  (A) (A) (A) (A) (A) (A) (A) (A) (A) (A) (A) (A)
                 (A) (A) (A) (A) (A) (A) (A) (A) (A) (A) (A) (A)
                 (A) (A) (A) (A) (A) (A) (A) (A) (A) (A) (A) (A)
                 (A) (A) (A) (A) (A) (A) (A) (A) (A) (A) (A) (A)
                 (A) (A) (A) (A) (A) (A) (A) (A) (A) (A) (A) (A)
                 (A) (A) (A) (A) (A) (A) (A) (A) (A) (A) (A) (A)
                 (A) (A) (A) (A) (A) (A) (A) (A) (A) (A) (A) (A)
                 (A) (A) (A) (A) (A)
       Virtual   (A) (A) (A) (A) (A) (A) (A) (A) (A) (A) (A) (A)
                 (A) (A) (A) (A) (A) (A) (A) (A) (A) (A) (A) (A)
                 (A) (A) (A) (A) (A) (A) (A) (A) (A) (A) (A) (A)
                 (A) (A) (A) (A) (A) (A) (A) (A) (A) (A) (A) (A)
                 (A) (A) (A) (A) (A) (A) (A) (A) (A) (A) (A) (A)
                 (A) (A) (A) (A) (A) (A) (A) (A) (A) (A) (A) (A)
                 (A) (A) (A) (A) (A) (A) (A) (A) (A) (A) (A) (A)
                 (A) (A) (A) (A) (A) (A) (A) (A) (A) (A) (A) (A)
                 (A) (A) (A) (A) (A) (A) (A) (A) (A) (A) (A) (A)
                 (A) (A) (A) (A) (A) (A) (A) (A) (A) (A) (A) (A)
                 (A) (A) (A) (A) (A) (A) (A) (A) (A) (A) (A) (A)
                 (A) (A) (A) (A) (A) (A) (A) (A) (A) (A) (A) (A)
                 (A) (A) (A) (A) (A) (A) (A) (A) (A) (A) (A) (A)
                 (A) (A) (A) (A) (A) (A) (A) (A) (A) (A) (A) (A)
                 (A) (A) (A) (A) (A) (A) (A) (A) (A) (A) (A) (A)
                 (A) (A) (A) (A) (A) (A) (A) (A) (A) (A) (A) (A)
                 (A) (A) (A) (A) (A) (A) (A) (A) (A) (A) (A) (A)
                 (A) (A) (A) (A) (A) (A) (A) (A) (A) (A) (A) (A)
                 (A) (A) (A) (A) (A) (A) (A) (A) (A) (A) (A) (A)
                 (A) (A) (A) (A) (A) (A) (A) (A) (A) (A) (A) (A)
                 (A) (A) (A) (A) (A) (A) (A) (A) (A) (A) (A) (A)
                 (A) (A) (A) (A) (A) (A) (A) (A) (A) (A) (A) (A)
                 (A) (A) (A) (A) (A) (A) (A) (A) (A) (A) (A) (A)
                 (A) (A) (A) (A) (A) (A) (A) (A) (A) (A) (A) (A)
                 (A) (A) (A) (A) (A) (A) (A) (A) (A) (A) (A) (A)
                 (A) (A) (A) (A) (A) (A) (A) (A) (A) (A) (A) (A)
                 (A) (A) (A) (A) (A) (A) (A) (A) (A) (A) (A) (A)
                 (A) (A) (A) (A) (A) (A) (A) (A) (A) (A) (A) (A)
                 (A) (A) (A) (A) (A) (A) (A) (A) (A) (A) (A) (A)
                 (A) (A) (A) (A) (A) (A) (A) (A) (A) (A) (A) (A)
                 (A) (A) (A) (A) (A) (A) (A) (A) (A) (A) (A) (A)
                 (A) (A) (A) (A) (A) (A) (A) (A) (A)
    28 initial guesses have been made.
 Convergence on wavefunction:    0.000001000000000
 Iteration     1 Dimension    28 NMult     0 NNew     28
 CISAX will form    28 AO SS matrices at one time.
 New state      2 was old state      7
 New state      3 was old state      2
 New state      6 was old state      3
 New state      7 was old state      6
 Iteration     2 Dimension    42 NMult    28 NNew     14
 New state      5 was old state      6
 New state      6 was old state      5
 Iteration     3 Dimension    56 NMult    42 NNew     14
 Iteration     4 Dimension    70 NMult    56 NNew     14
 Iteration     5 Dimension    84 NMult    70 NNew     14
 Iteration     6 Dimension    98 NMult    84 NNew     14
 Iteration     7 Dimension   112 NMult    98 NNew     14
 Iteration     8 Dimension   126 NMult   112 NNew     14
 Iteration     9 Dimension   140 NMult   126 NNew     14
 Iteration    10 Dimension   154 NMult   140 NNew     14
 Iteration    11 Dimension   156 NMult   154 NNew      2
 ***********************************************************************
 Excited states from <AA,BB:AA,BB> singles matrix:
 ***********************************************************************
 
 Ground to excited state transition densities written to RWF  633
 Ground to excited state transition electric dipole moments (Au):
       state          X           Y           Z        Dip. S.      Osc.
         1        -3.6763      0.7353      0.0000     14.0561      0.9783
         2         0.0000      0.0000      0.0059      0.0000      0.0000
         3         1.0621      0.1913      0.0000      1.1646      0.1080
         4         0.5931      0.3160     -0.0000      0.4517      0.0453
         5        -1.1890     -0.7998     -0.0000      2.0534      0.2124
         6         0.0098     -0.0054      0.0000      0.0001      0.0000
         7        -0.9494     -0.5795     -0.0000      1.2371      0.1391
 Ground to excited state transition velocity dipole moments (Au):
       state          X           Y           Z        Dip. S.      Osc.
         1         0.3813     -0.0730     -0.0000      0.1507      0.9623
         2        -0.0000     -0.0000     -0.0037      0.0000      0.0001
         3        -0.1447     -0.0305     -0.0000      0.0219      0.1048
         4        -0.0833     -0.0512      0.0000      0.0096      0.0423
         5         0.1775      0.1217     -0.0000      0.0463      0.1990
         6        -0.0020     -0.0013     -0.0000      0.0000      0.0000
         7         0.1465      0.0989      0.0000      0.0313      0.1235
 Ground to excited state transition magnetic dipole moments (Au):
       state          X           Y           Z
         1         0.0000     -0.0000      0.5994
         2         0.4651      0.1998      0.0000
         3        -0.0000     -0.0000      2.1137
         4        -0.0000     -0.0000     -0.1124
         5         0.0000      0.0000      0.0129
         6        -0.0000     -0.0000      1.7738
         7         0.0000      0.0000     -1.0097
 Ground to excited state transition velocity quadrupole moments (Au):
       state          XX          YY          ZZ          XY          XZ          YZ
         1        -0.0961     -0.0728      0.0034      0.0323      0.0000     -0.0000
         2        -0.0000     -0.0000      0.0000      0.0000     -0.0336      0.0371
         3        -1.1085     -0.5673      0.0083      0.9453      0.0000     -0.0000
         4         1.6321      0.1416      0.0061     -0.4032      0.0000     -0.0000
         5         0.7224     -0.0129      0.0086     -0.1260     -0.0000     -0.0000
         6         1.9067     -0.0475     -0.0038      0.7655      0.0000     -0.0000
         7        -1.9043     -0.0005     -0.0026     -0.5441     -0.0000     -0.0000
 <0|del|b> * <b|rxdel|0> + <0|del|b> * <b|delr+rdel|0>
 Rotatory Strengths (R) in cgs (10**-40 erg-esu-cm/Gauss)
       state          XX          YY          ZZ    R(velocity)    E-M Angle
         1         0.0001     -0.0021      0.0032      0.0004       90.00
         2        -0.0001     -0.0006     -0.0005     -0.0004       90.00
         3        -0.0023     -0.0002      0.0009     -0.0005       90.00
         4         0.0004      0.0001      0.0003      0.0003       90.00
         5         0.0021      0.0002      0.0010      0.0011       90.00
         6        -0.0015     -0.0006     -0.0000     -0.0007       90.00
         7         0.0010     -0.0002      0.0010      0.0006       90.00
 1/2[<0|r|b>*<b|rxdel|0> + (<0|rxdel|b>*<b|r|0>)*]
 Rotatory Strengths (R) in cgs (10**-40 erg-esu-cm/Gauss)
       state          XX          YY          ZZ     R(length)
         1         0.0010      0.0005     -0.0002      0.0004
         2        -0.0011     -0.0001     -0.0000     -0.0004
         3         0.0015      0.0004     -0.0035     -0.0005
         4         0.0002      0.0006     -0.0000      0.0002
         5         0.0005      0.0028      0.0000      0.0011
         6         0.0000     -0.0000     -0.0022     -0.0007
         7         0.0006      0.0020     -0.0008      0.0006
  1/2[<0|del|b>*<b|r|0> + (<0|r|b>*<b|del|0>)*] (Au)
       state          X           Y           Z        Dip. S.   Osc.(frdel)
         1        -1.4017     -0.0537     -0.0000      1.4554      0.9702
         2        -0.0000     -0.0000     -0.0000      0.0000      0.0000
         3        -0.1537     -0.0058     -0.0000      0.1595      0.1063
         4        -0.0494     -0.0162     -0.0000      0.0656      0.0437
         5        -0.2110     -0.0973      0.0000      0.3083      0.2056
         6        -0.0000      0.0000     -0.0000      0.0000      0.0000
         7        -0.1391     -0.0573     -0.0000      0.1964      0.1310

 Excitation energies and oscillator strengths:
 
 Excited State   1:      Singlet-A      2.8409 eV  436.43 nm  f=0.9783  <S**2>=0.000
      88 -> 91        -0.11212
      89 -> 90         0.68482
 This state for optimization and/or second-order correction.
 Total Energy, E(TD-HF/TD-DFT) =  -1107.25068174    
 Copying the excited state density for this state as the 1-particle RhoCI density.
 
 Excited State   2:      Singlet-A      3.7199 eV  333.30 nm  f=0.0000  <S**2>=0.000
      85 -> 90         0.62142
      85 -> 91        -0.27448
      85 -> 95        -0.15793
 
 Excited State   3:      Singlet-A      3.7842 eV  327.64 nm  f=0.1080  <S**2>=0.000
      87 -> 91        -0.13414
      88 -> 90         0.61344
      89 -> 91        -0.28079
 
 Excited State   4:      Singlet-A      4.0963 eV  302.67 nm  f=0.0453  <S**2>=0.000
      87 -> 90         0.42845
      87 -> 91        -0.12095
      88 -> 90         0.19848
      88 -> 91        -0.10826
      88 -> 92         0.12936
      89 -> 91         0.42216
      89 -> 92         0.13375
 
 Excited State   5:      Singlet-A      4.2218 eV  293.67 nm  f=0.2124  <S**2>=0.000
      86 -> 90         0.39348
      86 -> 91         0.20392
      87 -> 90        -0.29363
      88 -> 91         0.10217
      88 -> 93        -0.12047
      89 -> 91         0.34568
      89 -> 93         0.16398
 
 Excited State   6:      Singlet-A      4.3973 eV  281.96 nm  f=0.0000  <S**2>=0.000
      86 -> 90         0.41629
      86 -> 91         0.12516
      87 -> 90         0.37011
      87 -> 91        -0.12507
      88 -> 90        -0.19348
      89 -> 91        -0.25044
      89 -> 93         0.11081
 
 Excited State   7:      Singlet-A      4.5905 eV  270.09 nm  f=0.1391  <S**2>=0.000
      84 -> 90         0.16342
      86 -> 90        -0.13489
      86 -> 93         0.10096
      87 -> 95         0.11205
      88 -> 91         0.30086
      88 -> 94         0.16391
      89 -> 91        -0.11021
      89 -> 92         0.50274
      89 -> 95        -0.13442
 SavETr:  write IOETrn=   770 NScale= 10 NData=  16 NLR=1 NState=    7 LETran=     136.
          IDoAtm=111111111111111111111111111111111111111111
          Differentiating once with respect to electric field.
                with respect to dipole field.
          Differentiating once with respect to nuclear coordinates.
          There are     1 degrees of freedom in the 1st order CPHF.  IDoFFX=0 NUNeed=     1.
 LinEq1:  Iter=  0 NonCon=     1 RMS=2.55D-03 Max=1.97D-01 NDo=     1
 AX will form     1 AO Fock derivatives at one time.
 LinEq1:  Iter=  1 NonCon=     1 RMS=1.29D-03 Max=1.00D-01 NDo=     1
 LinEq1:  Iter=  2 NonCon=     1 RMS=5.07D-04 Max=2.49D-02 NDo=     1
 LinEq1:  Iter=  3 NonCon=     1 RMS=2.72D-04 Max=1.31D-02 NDo=     1
 LinEq1:  Iter=  4 NonCon=     1 RMS=1.78D-04 Max=8.55D-03 NDo=     1
 LinEq1:  Iter=  5 NonCon=     1 RMS=8.45D-05 Max=4.89D-03 NDo=     1
 LinEq1:  Iter=  6 NonCon=     1 RMS=4.57D-05 Max=1.99D-03 NDo=     1
 LinEq1:  Iter=  7 NonCon=     1 RMS=3.01D-05 Max=1.55D-03 NDo=     1
 LinEq1:  Iter=  8 NonCon=     1 RMS=1.31D-05 Max=6.06D-04 NDo=     1
 LinEq1:  Iter=  9 NonCon=     1 RMS=8.18D-06 Max=3.43D-04 NDo=     1
 LinEq1:  Iter= 10 NonCon=     1 RMS=4.31D-06 Max=2.45D-04 NDo=     1
 LinEq1:  Iter= 11 NonCon=     1 RMS=2.62D-06 Max=9.67D-05 NDo=     1
 LinEq1:  Iter= 12 NonCon=     1 RMS=1.35D-06 Max=5.58D-05 NDo=     1
 LinEq1:  Iter= 13 NonCon=     1 RMS=8.56D-07 Max=3.08D-05 NDo=     1
 LinEq1:  Iter= 14 NonCon=     1 RMS=4.35D-07 Max=1.75D-05 NDo=     1
 LinEq1:  Iter= 15 NonCon=     1 RMS=2.20D-07 Max=8.88D-06 NDo=     1
 LinEq1:  Iter= 16 NonCon=     1 RMS=1.13D-07 Max=4.08D-06 NDo=     1
 LinEq1:  Iter= 17 NonCon=     1 RMS=4.45D-08 Max=2.03D-06 NDo=     1
 LinEq1:  Iter= 18 NonCon=     1 RMS=2.09D-08 Max=1.02D-06 NDo=     1
 LinEq1:  Iter= 19 NonCon=     1 RMS=1.24D-08 Max=6.20D-07 NDo=     1
 LinEq1:  Iter= 20 NonCon=     1 RMS=5.06D-09 Max=2.01D-07 NDo=     1
 LinEq1:  Iter= 21 NonCon=     1 RMS=2.97D-09 Max=1.71D-07 NDo=     1
 LinEq1:  Iter= 22 NonCon=     1 RMS=1.10D-09 Max=4.04D-08 NDo=     1
 LinEq1:  Iter= 23 NonCon=     1 RMS=6.16D-10 Max=1.98D-08 NDo=     1
 LinEq1:  Iter= 24 NonCon=     1 RMS=2.64D-10 Max=8.72D-09 NDo=     1
 LinEq1:  Iter= 25 NonCon=     1 RMS=9.56D-11 Max=2.56D-09 NDo=     1
 LinEq1:  Iter= 26 NonCon=     1 RMS=5.16D-11 Max=1.77D-09 NDo=     1
 LinEq1:  Iter= 27 NonCon=     0 RMS=2.18D-11 Max=7.76D-10 NDo=     1
 Linear equations converged to 1.000D-10 1.000D-09 after    27 iterations.
 End of Minotr F.D. properties file   721 does not exist.
 End of Minotr F.D. properties file   722 does not exist.
 End of Minotr F.D. properties file   788 does not exist.

 **********************************************************************

            Population analysis using the SCF density.

 **********************************************************************

 Orbital symmetries:
       Occupied  (A) (A) (A) (A) (A) (A) (A) (A) (A) (A) (A) (A)
                 (A) (A) (A) (A) (A) (A) (A) (A) (A) (A) (A) (A)
                 (A) (A) (A) (A) (A) (A) (A) (A) (A) (A) (A) (A)
                 (A) (A) (A) (A) (A) (A) (A) (A) (A) (A) (A) (A)
                 (A) (A) (A) (A) (A) (A) (A) (A) (A) (A) (A) (A)
                 (A) (A) (A) (A) (A) (A) (A) (A) (A) (A) (A) (A)
                 (A) (A) (A) (A) (A) (A) (A) (A) (A) (A) (A) (A)
                 (A) (A) (A) (A) (A)
       Virtual   (A) (A) (A) (A) (A) (A) (A) (A) (A) (A) (A) (A)
                 (A) (A) (A) (A) (A) (A) (A) (A) (A) (A) (A) (A)
                 (A) (A) (A) (A) (A) (A) (A) (A) (A) (A) (A) (A)
                 (A) (A) (A) (A) (A) (A) (A) (A) (A) (A) (A) (A)
                 (A) (A) (A) (A) (A) (A) (A) (A) (A) (A) (A) (A)
                 (A) (A) (A) (A) (A) (A) (A) (A) (A) (A) (A) (A)
                 (A) (A) (A) (A) (A) (A) (A) (A) (A) (A) (A) (A)
                 (A) (A) (A) (A) (A) (A) (A) (A) (A) (A) (A) (A)
                 (A) (A) (A) (A) (A) (A) (A) (A) (A) (A) (A) (A)
                 (A) (A) (A) (A) (A) (A) (A) (A) (A) (A) (A) (A)
                 (A) (A) (A) (A) (A) (A) (A) (A) (A) (A) (A) (A)
                 (A) (A) (A) (A) (A) (A) (A) (A) (A) (A) (A) (A)
                 (A) (A) (A) (A) (A) (A) (A) (A) (A) (A) (A) (A)
                 (A) (A) (A) (A) (A) (A) (A) (A) (A) (A) (A) (A)
                 (A) (A) (A) (A) (A) (A) (A) (A) (A) (A) (A) (A)
                 (A) (A) (A) (A) (A) (A) (A) (A) (A) (A) (A) (A)
                 (A) (A) (A) (A) (A) (A) (A) (A) (A) (A) (A) (A)
                 (A) (A) (A) (A) (A) (A) (A) (A) (A) (A) (A) (A)
                 (A) (A) (A) (A) (A) (A) (A) (A) (A) (A) (A) (A)
                 (A) (A) (A) (A) (A) (A) (A) (A) (A) (A) (A) (A)
                 (A) (A) (A) (A) (A) (A) (A) (A) (A) (A) (A) (A)
                 (A) (A) (A) (A) (A) (A) (A) (A) (A) (A) (A) (A)
                 (A) (A) (A) (A) (A) (A) (A) (A) (A) (A) (A) (A)
                 (A) (A) (A) (A) (A) (A) (A) (A) (A) (A) (A) (A)
                 (A) (A) (A) (A) (A) (A) (A) (A) (A) (A) (A) (A)
                 (A) (A) (A) (A) (A) (A) (A) (A) (A) (A) (A) (A)
                 (A) (A) (A) (A) (A) (A) (A) (A) (A) (A) (A) (A)
                 (A) (A) (A) (A) (A) (A) (A) (A) (A) (A) (A) (A)
                 (A) (A) (A) (A) (A) (A) (A) (A) (A) (A) (A) (A)
                 (A) (A) (A) (A) (A) (A) (A) (A) (A) (A) (A) (A)
                 (A) (A) (A) (A) (A) (A) (A) (A) (A) (A) (A) (A)
                 (A) (A) (A) (A) (A) (A) (A) (A) (A)
 The electronic state is 1-A.
 Alpha  occ. eigenvalues --  -19.24609 -19.18711 -14.48634 -14.46737 -10.34408
 Alpha  occ. eigenvalues --  -10.33726 -10.33201 -10.32910 -10.28769 -10.28280
 Alpha  occ. eigenvalues --  -10.28077 -10.27938 -10.27655 -10.27558 -10.27104
 Alpha  occ. eigenvalues --  -10.27070 -10.26929 -10.26880 -10.26729 -10.26707
 Alpha  occ. eigenvalues --  -10.26580 -10.26461 -10.26377 -10.26214 -10.25826
 Alpha  occ. eigenvalues --  -10.25569  -1.15122  -1.13431  -1.08899  -0.97416
 Alpha  occ. eigenvalues --   -0.96174  -0.95078  -0.90883  -0.89375  -0.87976
 Alpha  occ. eigenvalues --   -0.85736  -0.82828  -0.81924  -0.81199  -0.79381
 Alpha  occ. eigenvalues --   -0.75835  -0.72358  -0.71851  -0.70189  -0.69232
 Alpha  occ. eigenvalues --   -0.68110  -0.67305  -0.65893  -0.64719  -0.60753
 Alpha  occ. eigenvalues --   -0.60339  -0.58712  -0.58503  -0.56877  -0.55491
 Alpha  occ. eigenvalues --   -0.54973  -0.52954  -0.52877  -0.52308  -0.51637
 Alpha  occ. eigenvalues --   -0.51180  -0.50126  -0.49658  -0.49568  -0.48809
 Alpha  occ. eigenvalues --   -0.48759  -0.48331  -0.47271  -0.46946  -0.46197
 Alpha  occ. eigenvalues --   -0.45019  -0.44986  -0.44582  -0.43285  -0.41378
 Alpha  occ. eigenvalues --   -0.40990  -0.40670  -0.39884  -0.39606  -0.37648
 Alpha  occ. eigenvalues --   -0.36881  -0.36022  -0.35262  -0.32115  -0.30377
 Alpha  occ. eigenvalues --   -0.28980  -0.28150  -0.26693  -0.23116
 Alpha virt. eigenvalues --   -0.04881  -0.00574   0.02370   0.03945   0.04172
 Alpha virt. eigenvalues --    0.05692   0.10477   0.11336   0.12830   0.14135
 Alpha virt. eigenvalues --    0.14543   0.15206   0.16644   0.17130   0.17686
 Alpha virt. eigenvalues --    0.18602   0.18771   0.20207   0.21068   0.21884
 Alpha virt. eigenvalues --    0.22264   0.22440   0.22675   0.24046   0.25234
 Alpha virt. eigenvalues --    0.27035   0.27626   0.27802   0.28861   0.29766
 Alpha virt. eigenvalues --    0.30259   0.30817   0.31988   0.33451   0.34292
 Alpha virt. eigenvalues --    0.35739   0.36314   0.36770   0.37310   0.37724
 Alpha virt. eigenvalues --    0.38560   0.39197   0.40638   0.43153   0.43891
 Alpha virt. eigenvalues --    0.45386   0.46974   0.48429   0.49269   0.52563
 Alpha virt. eigenvalues --    0.52731   0.53572   0.54723   0.54979   0.55727
 Alpha virt. eigenvalues --    0.56584   0.57139   0.58449   0.58535   0.58787
 Alpha virt. eigenvalues --    0.59307   0.59476   0.59987   0.60200   0.60365
 Alpha virt. eigenvalues --    0.60970   0.61611   0.62015   0.62733   0.63652
 Alpha virt. eigenvalues --    0.64541   0.64551   0.64724   0.65272   0.65525
 Alpha virt. eigenvalues --    0.66052   0.66481   0.66620   0.67100   0.67139
 Alpha virt. eigenvalues --    0.67549   0.67812   0.68117   0.68461   0.68997
 Alpha virt. eigenvalues --    0.69040   0.69825   0.70361   0.71193   0.72046
 Alpha virt. eigenvalues --    0.72583   0.72986   0.73440   0.74519   0.75219
 Alpha virt. eigenvalues --    0.75240   0.76633   0.77414   0.81769   0.82878
 Alpha virt. eigenvalues --    0.83272   0.83659   0.84808   0.85361   0.86333
 Alpha virt. eigenvalues --    0.86689   0.87099   0.88021   0.88366   0.88574
 Alpha virt. eigenvalues --    0.89117   0.91149   0.91842   0.92405   0.92749
 Alpha virt. eigenvalues --    0.92924   0.92960   0.93653   0.95264   0.95853
 Alpha virt. eigenvalues --    0.97106   0.98829   0.99309   0.99798   1.00901
 Alpha virt. eigenvalues --    1.02079   1.02679   1.03183   1.03685   1.04616
 Alpha virt. eigenvalues --    1.04701   1.05573   1.07802   1.09119   1.09615
 Alpha virt. eigenvalues --    1.09722   1.10793   1.11588   1.13606   1.15411
 Alpha virt. eigenvalues --    1.17153   1.17610   1.19643   1.20525   1.21800
 Alpha virt. eigenvalues --    1.22936   1.24619   1.24983   1.25965   1.26450
 Alpha virt. eigenvalues --    1.27798   1.28448   1.29701   1.29748   1.30408
 Alpha virt. eigenvalues --    1.31267   1.33384   1.34498   1.34699   1.36318
 Alpha virt. eigenvalues --    1.36505   1.36963   1.37302   1.40255   1.41079
 Alpha virt. eigenvalues --    1.41758   1.42540   1.43281   1.43700   1.44782
 Alpha virt. eigenvalues --    1.46058   1.46481   1.46584   1.47776   1.48199
 Alpha virt. eigenvalues --    1.48495   1.48521   1.48964   1.49866   1.50663
 Alpha virt. eigenvalues --    1.50699   1.52295   1.53030   1.54533   1.54929
 Alpha virt. eigenvalues --    1.57344   1.57688   1.57873   1.63324   1.67032
 Alpha virt. eigenvalues --    1.68508   1.70605   1.71856   1.75678   1.78681
 Alpha virt. eigenvalues --    1.79145   1.79742   1.80727   1.81606   1.82327
 Alpha virt. eigenvalues --    1.83058   1.84908   1.86679   1.87686   1.88948
 Alpha virt. eigenvalues --    1.89784   1.89806   1.90442   1.90541   1.90957
 Alpha virt. eigenvalues --    1.92157   1.93938   1.94616   1.95279   1.96425
 Alpha virt. eigenvalues --    1.97133   1.97789   1.98264   1.98744   1.98816
 Alpha virt. eigenvalues --    1.99101   1.99782   1.99797   2.00564   2.01783
 Alpha virt. eigenvalues --    2.01875   2.02985   2.04324   2.05597   2.06032
 Alpha virt. eigenvalues --    2.07033   2.07608   2.07771   2.08388   2.09698
 Alpha virt. eigenvalues --    2.09972   2.10437   2.12514   2.14602   2.14881
 Alpha virt. eigenvalues --    2.15144   2.17158   2.23673   2.23878   2.25134
 Alpha virt. eigenvalues --    2.27352   2.28071   2.29703   2.31194   2.32564
 Alpha virt. eigenvalues --    2.32744   2.33163   2.33477   2.34154   2.35074
 Alpha virt. eigenvalues --    2.35757   2.36597   2.37251   2.37646   2.38263
 Alpha virt. eigenvalues --    2.40715   2.41140   2.43703   2.44419   2.45364
 Alpha virt. eigenvalues --    2.45586   2.46188   2.46713   2.46818   2.48015
 Alpha virt. eigenvalues --    2.48523   2.50522   2.51359   2.52122   2.52683
 Alpha virt. eigenvalues --    2.53858   2.54076   2.54790   2.55910   2.56107
 Alpha virt. eigenvalues --    2.56600   2.57593   2.58495   2.60842   2.61103
 Alpha virt. eigenvalues --    2.62365   2.62382   2.63721   2.64492   2.64742
 Alpha virt. eigenvalues --    2.66403   2.67102   2.67414   2.67541   2.67964
 Alpha virt. eigenvalues --    2.69128   2.69401   2.69532   2.71074   2.71381
 Alpha virt. eigenvalues --    2.72743   2.74273   2.75128   2.76846   2.78792
 Alpha virt. eigenvalues --    2.78867   2.80888   2.81416   2.81516   2.81988
 Alpha virt. eigenvalues --    2.82991   2.85154   2.85191   2.86417   2.88117
 Alpha virt. eigenvalues --    2.89258   2.91302   2.91946   2.97072   2.98011
 Alpha virt. eigenvalues --    3.02836   3.04597   3.08747   3.09307   3.11204
 Alpha virt. eigenvalues --    3.11895   3.13527   3.17788   3.18883   3.20315
 Alpha virt. eigenvalues --    3.24008   3.25849   3.26585   3.27298   3.27896
 Alpha virt. eigenvalues --    3.31528   3.31918   3.33614   3.35021   3.35258
 Alpha virt. eigenvalues --    3.35785   3.41524   3.42086   3.47005   3.47709
 Alpha virt. eigenvalues --    3.55330   3.55823   3.57805   3.63475   3.67421
 Alpha virt. eigenvalues --    3.69986   3.80272   3.82980   3.94652   3.95619
 Alpha virt. eigenvalues --    3.96769   4.10382   4.13922   4.17136   4.17816
 Alpha virt. eigenvalues --    4.19856   4.20913   4.21348   4.21980   4.24873
 Alpha virt. eigenvalues --    4.25749   4.29572   4.33636   4.34565   4.43971
 Alpha virt. eigenvalues --    4.45388   4.45577   4.48351   4.57169   4.60311
 Alpha virt. eigenvalues --    4.62204   4.65171   4.75287   4.79150   5.00377
 Alpha virt. eigenvalues --    5.01778
          Condensed to atoms (all electrons):
               1          2          3          4          5          6
     1  O    8.123631   0.000000  -0.043800   0.001407  -0.000000  -0.000000
     2  O    0.000000   8.276537   0.002769  -0.060231  -0.000000  -0.000000
     3  N   -0.043800   0.002769   6.910758   0.155418   0.000000   0.000000
     4  N    0.001407  -0.060231   0.155418   6.793142   0.000000  -0.000000
     5  C   -0.000000  -0.000000   0.000000   0.000000   4.839500   0.524713
     6  C   -0.000000  -0.000000   0.000000  -0.000000   0.524713   4.979865
     7  C    0.000000  -0.000000  -0.000008   0.000000   0.509762  -0.023010
     8  C   -0.000026  -0.000000   0.000215   0.000003  -0.026812  -0.068627
     9  C    0.003238  -0.000000   0.000005   0.000000   0.008266  -0.083931
    10  C   -0.058465   0.000000  -0.000002  -0.000002  -0.000398   0.007840
    11  C    0.000100   0.000000  -0.000086   0.000000  -0.015629   0.474046
    12  C    0.004696   0.000000   0.004191  -0.000042  -0.039782  -0.023676
    13  C    0.319376  -0.000000  -0.003521   0.000091   0.000056  -0.000525
    14  C   -0.054179  -0.000006  -0.042122   0.007546  -0.000617   0.013748
    15  C   -0.016960  -0.000802   0.419218  -0.059503  -0.000010  -0.000111
    16  C   -0.000000  -0.000001  -0.000000   0.000000   0.000000   0.000000
    17  C    0.000000   0.000000  -0.000000   0.000000   0.000000   0.000000
    18  C   -0.000000   0.000000   0.000000  -0.000008   0.000000   0.000000
    19  C   -0.000000  -0.000026   0.000006   0.000273  -0.000000   0.000000
    20  C    0.000000   0.006539  -0.000079   0.004575   0.000000  -0.000000
    21  C    0.000000  -0.000054   0.000001  -0.000100  -0.000000   0.000000
    22  C   -0.000000   0.004522  -0.000000   0.000029  -0.000000  -0.000000
    23  C    0.000000  -0.064469   0.000001  -0.000525  -0.000000   0.000000
    24  C   -0.000000   0.432851   0.000245  -0.001990   0.000000   0.000000
    25  C   -0.000001  -0.062964   0.005126  -0.028976   0.000000  -0.000000
    26  C   -0.000136  -0.023540  -0.054516   0.372667  -0.000000   0.000000
    27  H   -0.000000   0.000000  -0.000000  -0.000000  -0.038353   0.003966
    28  H    0.000000  -0.000002   0.000231   0.000010   0.004254   0.000659
    29  H    0.000000   0.000000  -0.000000  -0.000000   0.371355  -0.032812
    30  H    0.000000  -0.000000  -0.000000   0.000000  -0.040138   0.370010
    31  H    0.282755  -0.000003   0.085871  -0.004782  -0.000000  -0.000000
    32  H   -0.000074  -0.000000   0.000008  -0.000000   0.000003  -0.000173
    33  H   -0.000066   0.000000  -0.000000   0.000000   0.000221  -0.007885
    34  H   -0.000000   0.000000   0.000000  -0.000000   0.000000   0.000000
    35  H   -0.000000   0.000000  -0.000000  -0.000000   0.000000   0.000000
    36  H   -0.000000  -0.000000   0.000000  -0.000000   0.000000   0.000000
    37  H    0.000000   0.000001  -0.000019   0.000229   0.000000  -0.000000
    38  H    0.000000  -0.000071   0.000000  -0.000000   0.000000   0.000000
    39  H   -0.000000   0.002070  -0.000000   0.000009  -0.000000   0.000000
    40  H   -0.000388  -0.000154  -0.050348  -0.007398  -0.000008   0.000005
    41  H   -0.000162  -0.000482   0.003810  -0.047196  -0.000000   0.000000
    42  H   -0.000031   0.107612  -0.011856   0.245362  -0.000000  -0.000000
               7          8          9         10         11         12
     1  O    0.000000  -0.000026   0.003238  -0.058465   0.000100   0.004696
     2  O   -0.000000  -0.000000  -0.000000   0.000000   0.000000   0.000000
     3  N   -0.000008   0.000215   0.000005  -0.000002  -0.000086   0.004191
     4  N    0.000000   0.000003   0.000000  -0.000002   0.000000  -0.000042
     5  C    0.509762  -0.026812   0.008266  -0.000398  -0.015629  -0.039782
     6  C   -0.023010  -0.068627  -0.083931   0.007840   0.474046  -0.023676
     7  C    4.816047   0.534027  -0.000733   0.000070  -0.037426  -0.009360
     8  C    0.534027   5.027008   0.014769  -0.001399  -0.054028   0.477210
     9  C   -0.000733   0.014769   5.004341   0.507264   0.430965  -0.025416
    10  C    0.000070  -0.001399   0.507264   4.935288  -0.005866  -0.043844
    11  C   -0.037426  -0.054028   0.430965  -0.005866   4.758943   0.485502
    12  C   -0.009360   0.477210  -0.025416  -0.043844   0.485502   4.829516
    13  C   -0.000187   0.009662  -0.003921   0.471246  -0.052591   0.022500
    14  C    0.008395  -0.093333  -0.061049  -0.041445  -0.011879   0.354074
    15  C    0.000193  -0.018519  -0.000585   0.007625   0.009734  -0.054934
    16  C    0.000000   0.000000  -0.000000   0.000000   0.000000  -0.000000
    17  C    0.000000  -0.000000   0.000000  -0.000000  -0.000000   0.000000
    18  C    0.000000   0.000000  -0.000000   0.000000   0.000000  -0.000000
    19  C    0.000000   0.000000   0.000000   0.000000  -0.000000  -0.000000
    20  C   -0.000000  -0.000000   0.000000  -0.000000  -0.000000   0.000000
    21  C    0.000000  -0.000000   0.000000  -0.000000  -0.000000  -0.000000
    22  C    0.000000   0.000000  -0.000000   0.000000   0.000000  -0.000000
    23  C    0.000000  -0.000000  -0.000000   0.000000   0.000000  -0.000000
    24  C    0.000000   0.000000   0.000000  -0.000000  -0.000000  -0.000000
    25  C   -0.000000   0.000000  -0.000000  -0.000000   0.000000   0.000000
    26  C    0.000000   0.000000  -0.000000  -0.000000  -0.000000   0.000001
    27  H    0.370639  -0.032000   0.000008  -0.000000   0.001166   0.002702
    28  H   -0.038251   0.364730  -0.000191   0.000023   0.004412  -0.033183
    29  H   -0.037857   0.004030  -0.000196   0.000003   0.002538   0.001115
    30  H    0.004360   0.000604  -0.008346   0.000317  -0.040321   0.004077
    31  H    0.000000   0.000017  -0.000131   0.004452  -0.000016  -0.000147
    32  H   -0.000000   0.000013  -0.032196   0.358632   0.002589   0.000763
    33  H    0.000017  -0.000201   0.369157  -0.035855  -0.038849   0.004288
    34  H    0.000000   0.000000   0.000000  -0.000000   0.000000  -0.000000
    35  H    0.000000  -0.000000   0.000000   0.000000   0.000000  -0.000000
    36  H    0.000000   0.000000   0.000000   0.000000  -0.000000  -0.000000
    37  H    0.000000   0.000000   0.000000  -0.000000  -0.000000   0.000000
    38  H   -0.000000  -0.000000  -0.000000  -0.000000   0.000000   0.000000
    39  H    0.000000   0.000000   0.000000  -0.000000  -0.000000  -0.000000
    40  H    0.000412   0.004079   0.000017  -0.000178  -0.000218  -0.012604
    41  H    0.000000   0.000000   0.000000   0.000000  -0.000000  -0.000000
    42  H    0.000000  -0.000003   0.000000   0.000000   0.000000  -0.000012
              13         14         15         16         17         18
     1  O    0.319376  -0.054179  -0.016960  -0.000000   0.000000  -0.000000
     2  O   -0.000000  -0.000006  -0.000802  -0.000001   0.000000   0.000000
     3  N   -0.003521  -0.042122   0.419218  -0.000000  -0.000000   0.000000
     4  N    0.000091   0.007546  -0.059503   0.000000   0.000000  -0.000008
     5  C    0.000056  -0.000617  -0.000010   0.000000   0.000000   0.000000
     6  C   -0.000525   0.013748  -0.000111   0.000000   0.000000   0.000000
     7  C   -0.000187   0.008395   0.000193   0.000000   0.000000   0.000000
     8  C    0.009662  -0.093333  -0.018519   0.000000  -0.000000   0.000000
     9  C   -0.003921  -0.061049  -0.000585  -0.000000   0.000000  -0.000000
    10  C    0.471246  -0.041445   0.007625   0.000000  -0.000000   0.000000
    11  C   -0.052591  -0.011879   0.009734   0.000000  -0.000000   0.000000
    12  C    0.022500   0.354074  -0.054934  -0.000000   0.000000  -0.000000
    13  C    4.663263   0.403178  -0.085975   0.000000  -0.000000   0.000000
    14  C    0.403178   5.174244   0.409802  -0.000000   0.000000  -0.000000
    15  C   -0.085975   0.409802   4.873542  -0.000000   0.000000   0.000000
    16  C    0.000000  -0.000000  -0.000000   4.983827   0.516989  -0.022244
    17  C   -0.000000   0.000000   0.000000   0.516989   4.843497   0.520115
    18  C    0.000000  -0.000000   0.000000  -0.022244   0.520115   4.814065
    19  C    0.000000  -0.000000  -0.000000  -0.067863  -0.028217   0.528108
    20  C   -0.000000   0.000000   0.000003  -0.021702  -0.040382  -0.008908
    21  C   -0.000000   0.000000  -0.000000   0.479956  -0.017012  -0.038638
    22  C    0.000000  -0.000000   0.000000  -0.082985   0.008072  -0.000676
    23  C    0.000000  -0.000000  -0.000001   0.007658  -0.000370   0.000067
    24  C   -0.000000   0.000000   0.000041  -0.000375   0.000039  -0.000152
    25  C    0.000000   0.000004  -0.000201   0.014297  -0.000547   0.008995
    26  C    0.000014  -0.000299   0.003900  -0.000151   0.000007   0.000034
    27  H    0.000002  -0.000232   0.000011   0.000000   0.000000   0.000000
    28  H   -0.000176  -0.014096   0.003225  -0.000000  -0.000000   0.000000
    29  H   -0.000000   0.000014  -0.000000   0.000000   0.000000   0.000000
[...]
 951,-0.00000087,0.00070066,-0.00031236,-0.00000025,-0.00226333,0.00147
 299,0.00000484,0.00029085,0.00007880,0.00000031,0.00000880,0.00000805,
 0.00000005,-0.00163805,-0.00046978,-0.00000167,0.00246064,-0.00486618,
 -0.00001103,-0.02675385,-0.01329095,-0.00002893,-0.13128444,-0.1511340
 8,-0.00018929,0.01276736,0.01250671,0.00001165,0.00256475,-0.00117492,
 -0.00001513,0.00090462,-0.00018119,0.00000174,-0.00025618,0.00019052,0
 .00000057,0.00000217,0.00000277,0.,-0.00000077,0.00000371,0.,-0.000000
 22,-0.00000170,0.,-0.00000161,0.,0.,-0.00006249,-0.00005205,-0.0000000
 9,-0.00000491,-0.00000174,0.,-0.00000018,-0.00000147,-0.00000001,0.001
 32791,-0.00005418,-0.00000018,0.00001856,-0.00003159,-0.00000014,0.000
 08248,0.00003065,-0.00000002,0.00008458,-0.00050397,-0.00000062,0.1411
 7713,0.15628646,0.00000014,-0.00000007,0.00002470,0.00000095,0.0000024
 2,-0.00133163,-0.00000107,0.00000048,-0.00012204,0.00000047,-0.0000002
 3,0.00027613,-0.00000013,-0.00000019,0.00000092,-0.00000007,0.00000020
 ,-0.00000070,0.00000024,-0.00000009,-0.00000522,-0.00000015,0.00000022
 ,0.00000097,0.00000021,-0.00000009,0.00000346,-0.00000035,0.00000010,-
 0.00005401,0.00000007,0.,-0.00000381,0.00000015,-0.00000018,-0.0000006
 9,0.00000024,0.00000076,0.00002805,-0.00000064,-0.00000080,0.00007048,
 0.00000101,-0.00000042,-0.00002189,-0.00000248,0.00000570,-0.00233183,
 0.00000045,0.00000015,-0.00009331,0.00000006,0.00000006,-0.00002741,-0
 .00000238,-0.00000126,0.00045644,0.00000282,-0.00001133,0.00338324,-0.
 00003717,-0.00002229,0.00307119,-0.00023207,-0.00018935,-0.03714231,0.
 00001232,0.00000458,0.00623283,0.00000107,-0.00001474,0.01001279,0.000
 00156,0.00000158,-0.00127737,-0.00000032,0.00000063,-0.00025804,0.,0.,
 0.,0.,0.,0.00000450,0.,0.,0.00000154,0.,0.,-0.00000016,-0.00000009,-0.
 00000006,-0.00000082,0.,0.,-0.00000063,0.,-0.00000001,0.00000912,0.000
 00186,-0.00000056,0.00028790,0.00000001,-0.00000015,0.00007089,0.00000
 011,-0.00000004,0.00005549,0.00000013,-0.00000063,-0.00005044,0.000251
 98,0.00021655,0.02444563,-0.00000526,0.00003996,0.00000005,0.00275773,
 0.00261158,0.00000496,-0.00031395,0.00026754,0.00000033,0.00034122,0.0
 0037914,0.00000056,-0.00003335,-0.00004438,-0.00000007,-0.00001665,0.0
 0004235,0.00000006,0.00006002,-0.00003072,-0.00000003,-0.00003943,0.00
 004839,0.00000006,0.00008382,-0.00003422,-0.00000003,-0.00012296,-0.00
 000437,-0.00000003,0.00002039,0.00002688,0.00000004,0.00002938,-0.0000
 3659,-0.00000005,0.00012220,0.00017281,0.00000027,-0.00015458,-0.00016
 363,-0.00000026,0.00027548,-0.00017415,-0.00000019,0.00068019,0.001085
 77,0.00000159,-0.00041300,0.00022502,0.00000040,-0.00000831,-0.0001952
 7,-0.00000031,0.00013307,0.00017466,0.00000040,-0.00048159,-0.00011144
 ,-0.00000022,-0.00506262,0.00088609,-0.00000197,0.00254266,0.02968195,
 0.00004152,-0.06213446,0.03235972,0.00003942,0.00622918,-0.02785256,-0
 .00003850,-0.00509382,-0.00199457,-0.00000475,0.00083906,-0.00120592,-
 0.00000157,-0.00000155,0.00000137,0.,-0.00000047,0.00000096,0.,0.00000
 179,-0.00000170,0.,0.00000045,0.00000168,0.,-0.00001484,-0.00003769,-0
 .00000005,-0.00000167,0.00000092,0.,0.00000118,-0.00000158,0.,-0.00004
 208,-0.00002281,-0.00000009,-0.00001533,0.00013707,0.00000020,0.000017
 96,0.00000996,0.,-0.00000281,0.00005093,0.00000007,0.00104396,-0.00031
 329,0.00000104,0.05936055,0.00008138,-0.00003872,-0.00000004,0.0007299
 7,0.00289008,0.00000850,-0.00044211,0.00003707,0.00000008,0.00057830,0
 .00044266,0.00000046,-0.00003913,-0.00007006,-0.00000010,-0.00002794,0
 .00008909,0.00000012,0.00006767,-0.00001261,0.,-0.00006040,0.00003277,
 0.00000004,0.00001407,0.00000109,0.,-0.00003849,0.00001109,0.,0.000017
 05,-0.00003579,-0.00000005,0.00002297,-0.00000405,-0.00000001,0.000015
 44,0.00020915,0.00000030,-0.00008337,-0.00014520,-0.00000017,0.0001946
 7,-0.00017980,-0.00000025,-0.00019856,-0.00046893,-0.00000122,0.000233
 67,-0.00003806,0.00000113,0.00006321,-0.00003096,-0.00000026,-0.000071
 89,0.00006848,0.00000088,-0.00033848,0.00039302,0.00000077,0.00166486,
 0.00183802,-0.00001018,-0.00069543,-0.00733704,-0.00001491,0.03007747,
 -0.34618552,-0.00042981,0.00639421,-0.01511081,-0.00002479,-0.00331460
 ,-0.00080439,-0.00000697,0.00060435,-0.00056997,-0.00000110,-0.0000013
 8,0.00000523,0.,0.00000400,-0.00000096,0.,-0.00000343,0.00000125,0.,-0
 .00000183,-0.00000166,0.,-0.00001566,-0.00001391,-0.00000001,-0.000000
 54,-0.00000317,0.,-0.00000253,0.00000146,0.,0.00002620,0.00000965,-0.0
 0000029,0.00000400,-0.00005099,-0.00000003,0.00000607,-0.00001446,-0.0
 0000010,-0.00001859,-0.00000864,-0.00000004,0.00029560,0.00080642,0.00
 000905,-0.03525655,0.36479710,0.00000011,-0.00000005,0.00000046,0.0000
 0232,0.00000892,-0.00304722,-0.00000067,0.00000024,-0.00009191,0.00000
 084,0.00000042,0.00020606,-0.00000006,-0.00000011,-0.00000193,-0.00000
 004,0.00000014,-0.00000080,0.00000011,-0.00000002,-0.00000242,-0.00000
 009,0.00000007,-0.00000602,0.00000004,0.,-0.00000045,-0.00000008,0.000
 00001,0.00000284,0.00000003,-0.00000004,0.00000034,0.00000004,-0.00000
 002,0.00000685,0.00000005,0.00000034,-0.00000214,-0.00000014,-0.000000
 19,-0.00003924,0.00000033,-0.00000033,0.00002677,-0.00000021,-0.000000
 94,0.00037062,0.00000042,0.00000113,-0.00080883,0.00000005,-0.00000032
 ,0.00016419,0.00000006,0.00000094,-0.00057079,-0.00000054,0.00000082,-
 0.00020829,-0.00000088,-0.00001036,0.00935757,-0.00000112,-0.00000814,
 0.00317752,0.00003622,-0.00042931,-0.03521054,0.00000957,-0.00003243,0
 .00356529,-0.00000660,-0.00000667,0.00363305,0.00000097,-0.00000151,0.
 00031066,0.,0.,0.00000313,0.,0.,0.00000631,0.,0.,0.00000097,0.,0.,0.00
 000087,-0.00000002,-0.00000002,-0.00000699,0.,0.,0.00000128,0.,0.,0.00
 000008,-0.00000002,-0.00000030,0.00022118,0.,0.,-0.00003039,0.,-0.0000
 0010,0.00005702,-0.00000003,-0.00000002,0.00001726,0.00000189,0.000008
 91,-0.00559198,-0.00004180,0.00046928,0.02488620,0.00116088,0.00055556
 ,0.00000126,0.00052880,-0.00025886,-0.00000009,-0.00336719,0.03376110,
 0.00004316,0.00656758,0.00453670,0.00000882,0.00007254,-0.00000898,-0.
 00000003,0.00027274,-0.00000558,0.00000007,0.00035582,0.00062330,0.000
 00103,-0.00247640,-0.00065737,-0.00000138,0.00013301,-0.00004226,-0.00
 000002,0.00062800,-0.00158902,-0.00000198,-0.00038827,0.00005806,0.000
 00005,0.00126020,0.00021659,0.00000100,-0.00579787,-0.00036456,-0.0000
 0295,0.00466281,-0.02619975,-0.00003685,-0.06484204,-0.02901942,-0.000
 04671,0.00000810,-0.00005936,-0.00000009,0.00002755,0.00000620,0.00000
 001,0.00002405,0.00008482,0.00000013,0.00001961,0.00005868,0.00000007,
 0.00010672,-0.00002611,-0.00000002,-0.00007157,-0.00025077,-0.00000038
 ,-0.00034500,0.00017104,0.00000020,0.00051592,0.00006611,0.00000008,-0
 .00088820,-0.00021294,-0.00000044,0.00027266,0.00021289,0.00000043,-0.
 00147252,0.00051633,0.00000059,-0.00005346,0.00000700,0.,-0.00265905,0
 .00284298,0.00000296,0.00006643,0.00003971,0.00000006,0.00000933,0.000
 00698,0.00000001,-0.00199023,-0.00077550,-0.00000184,-0.00041477,-0.00
 020677,-0.00000031,-0.00002688,0.00004955,0.00000002,0.00000804,0.0000
 0274,0.,0.00000036,0.00000002,0.,0.00000282,-0.00000885,-0.00000001,0.
 00000163,-0.00001061,0.,0.00000925,0.00001163,0.00000003,-0.00000210,0
 .00000111,0.,0.06870384,-0.00113572,0.00009420,0.00000128,-0.00051239,
 0.00047801,0.00000153,0.00571668,-0.02302609,-0.00005308,-0.00439881,0
 .00419277,0.00001115,0.00019462,0.00020389,0.00000013,0.00024573,-0.00
 043795,-0.00000042,0.00020585,0.00052477,0.00000123,0.00201719,-0.0008
 9760,-0.00000021,0.00019064,-0.00032749,-0.00000039,-0.00027674,-0.000
 54680,-0.00000014,-0.00043475,0.00022277,0.00000056,0.00098482,-0.0016
 9083,0.00000048,-0.00159263,0.00039739,-0.00000707,-0.00091402,-0.0090
 1460,-0.00001983,-0.02538509,-0.32943849,-0.00041480,0.00009258,-0.000
 17738,-0.00000025,0.00002659,0.00003790,0.00000006,0.00010302,0.000118
 49,0.00000021,-0.00003953,0.00020641,0.00000018,0.00056388,-0.00017355
 ,-0.00000016,-0.00026533,-0.00024695,-0.00000047,-0.00016714,-0.000014
 83,0.00000017,0.00004328,0.00000640,-0.00000077,0.00014690,-0.00069460
 ,-0.00000059,-0.00078712,0.00008415,0.00000039,0.00126697,0.00076091,0
 .00000260,-0.00000969,-0.00000945,0.00000005,0.00332552,0.00001533,-0.
 00000199,0.00004587,0.00002436,-0.00000003,-0.00001488,0.00001658,0.00
 000002,0.00168516,0.00139616,0.00000041,-0.00014909,-0.00006760,0.0000
 0032,-0.00002638,0.00001297,-0.00000024,0.00001816,0.00000651,0.,0.000
 00762,-0.00000136,0.,0.00000298,-0.00001591,-0.00000002,-0.00001210,0.
 00000132,0.00000003,0.00000927,0.00001632,0.00000012,0.00001104,0.0000
 1650,-0.00000004,0.01740413,0.35839023,-0.00000111,0.00000166,-0.00099
 967,-0.00000045,0.00000159,-0.00069372,0.00000378,-0.00004683,0.015686
 82,-0.00000372,0.00001314,-0.00444969,0.00000026,0.00000008,0.00014551
 ,0.00000043,-0.00000048,-0.00009872,0.00000044,0.00000133,-0.00032055,
 0.00000238,-0.00000080,-0.00042935,0.00000030,-0.00000044,-0.00002092,
 -0.00000014,-0.00000043,-0.00048933,-0.00000064,0.00000067,-0.00024595
 ,0.00000208,0.00000031,-0.00187485,-0.00000468,-0.00000680,0.00518077,
 -0.00000135,-0.00002545,0.00496189,-0.00004161,-0.00041561,-0.03802427
 ,0.00000013,-0.00000029,0.00001697,0.00000004,0.00000005,0.00000120,0.
 00000015,0.00000021,-0.00001715,-0.00000007,0.00000020,0.00007468,0.00
 000081,-0.00000029,0.00002792,-0.00000040,-0.00000047,0.00004805,-0.00
 000027,0.00000025,-0.00016277,0.00000005,-0.00000077,0.00056496,0.0000
 0006,-0.00000068,-0.00024734,-0.00000097,0.00000061,-0.00031972,0.0000
 0165,0.00000243,-0.00088724,-0.00000002,0.00000005,-0.00004710,0.00000
 364,-0.00000210,0.00196031,0.00000007,-0.00000003,0.00005232,-0.000000
 02,0.00000002,0.00000075,0.00000162,-0.00000014,0.00137412,-0.00000023
 ,0.00000031,-0.00031951,-0.00000008,-0.00000022,0.00017724,0.00000003,
 0.,0.00000626,0.00000001,0.,0.00000038,0.,-0.00000002,-0.00000203,-0.0
 0000001,0.00000003,-0.00002234,0.00000003,0.00000012,-0.00006493,0.,-0
 .00000004,0.00004796,0.00003566,0.00048143,0.01825131,0.00077084,-0.00
 021271,-0.00000013,0.00187141,0.00060875,0.00000160,0.00536105,0.00007
 179,0.00000226,-0.00118834,0.03887951,0.00005237,0.00000029,-0.0000301
 4,-0.00000004,-0.00003306,0.00007147,0.00000009,-0.00001456,0.00002514
 ,0.00000003,0.00000378,-0.00007397,-0.00000010,-0.00020014,0.00013453,
 0.00000015,0.00037949,0.00002902,0.00000014,0.00005168,-0.00012617,-0.
 00000017,-0.00010875,0.00012048,0.00000014,-0.00080835,0.00022240,0.00
 000015,0.00053129,0.00003412,0.00000015,-0.00167536,0.00027935,0.00000
 016,0.00013195,0.00026965,0.00000043,-0.00000930,-0.00016198,-0.000000
 25,0.00031626,0.00055368,0.00000092,-0.00207787,-0.00109708,-0.0000019
 6,0.00076491,0.00097745,0.00000186,-0.00010654,-0.00008073,-0.00000007
 ,0.00002793,0.00009438,0.00000015,0.00093516,-0.00152380,-0.00000208,-
 0.00584699,-0.00020746,-0.00000242,0.00943097,-0.02285385,-0.00003070,
 -0.06141941,-0.00831924,-0.00001816,-0.00000078,0.00000336,0.,0.000006
 59,0.00000314,0.,-0.00000343,0.00000234,0.,-0.00000022,-0.00000207,0.,
 -0.00082357,-0.00034623,-0.00000069,-0.00001165,-0.00001139,-0.0000000
 2,0.00000235,0.00000369,0.,0.00000810,0.00000088,0.,0.00005779,0.00004
 776,0.00000007,-0.00005577,0.00001340,0.,-0.00318719,0.00224295,0.0000
 0205,-0.00003755,0.00005078,0.00000006,-0.00037305,-0.00026142,-0.0000
 0036,0.00006352,-0.00037657,-0.00000055,0.06271038,0.00003788,0.000071
 13,0.00000011,-0.00025793,-0.00021031,0.00000169,-0.00221569,0.0014549
 0,0.00000760,0.00333315,-0.01760472,-0.00003621,0.00008428,0.00013007,
 0.00000020,0.00005790,-0.00011915,-0.00000015,-0.00014432,0.00008988,0
 .00000010,0.00004886,-0.00011376,-0.00000013,-0.00019670,0.00006355,0.
 00000009,0.00025467,0.00000953,0.00000018,-0.00006904,-0.00007248,-0.0
 0000017,0.00003059,0.00005868,0.00000006,-0.00022894,-0.00038168,-0.00
 000049,0.00008669,0.00026815,0.00000030,-0.00001408,0.00069706,0.00000
 187,0.00012104,-0.00006693,0.00000009,0.00002987,-0.00005629,-0.000000
 19,0.00036598,0.00043142,0.00000115,0.00127011,-0.00043379,-0.00000005
 ,0.00144730,-0.00126205,0.00000056,-0.00034929,0.00017213,0.00000061,0
 .00045174,-0.00039428,-0.00000038,-0.00045502,-0.00077237,-0.00000215,
 -0.00261928,0.00205686,-0.00000291,0.00028691,-0.01085087,-0.00001974,
 0.00096033,-0.35093284,-0.00044699,-0.00000470,-0.00000195,0.,0.000001
 24,-0.00000330,-0.00000002,-0.00000049,0.00000313,0.,0.00000286,-0.000
 00161,0.,0.00026961,-0.00002040,-0.00000009,0.00000560,0.00000308,-0.0
 0000003,0.00000144,0.00000782,0.,-0.00001819,0.00000700,0.,0.00003077,
 0.00003122,-0.00000002,-0.00000670,0.00000456,0.00000002,0.00270620,0.
 00071545,-0.00000081,-0.00004304,0.00002193,0.,-0.00020141,-0.00015281
 ,0.00000028,-0.00032596,-0.00001570,-0.00000031,-0.00772671,0.37488346
 ,0.00000023,0.00000006,-0.00000456,0.00000038,0.00000188,-0.00145345,-
 0.00000096,0.00000811,-0.00431226,0.00000247,-0.00002829,0.00871714,0.
 00000012,0.00000018,-0.00000188,0.00000007,-0.00000015,-0.00000349,-0.
 00000020,0.00000014,-0.00000289,0.00000007,-0.00000016,-0.00001350,-0.
 00000031,0.00000016,-0.00003058,0.00000046,0.00000013,-0.00007548,-0.0
 0000009,-0.00000018,0.00003925,0.00000001,0.00000008,0.00002237,-0.000
 00049,-0.00000039,-0.00006922,0.00000023,0.00000029,0.00006536,-0.0000
 0025,0.00000194,-0.00063832,0.00000022,0.00000012,-0.00011244,0.000000
 02,-0.00000023,0.00008233,0.00000066,0.00000119,-0.00033073,0.00000136
 ,-0.00000057,-0.00019916,0.00000252,0.00000046,-0.00143236,-0.00000044
 ,0.00000067,-0.00031752,0.00000065,-0.00000046,-0.00004932,-0.00000058
 ,-0.00000239,0.00068525,-0.00000581,-0.00000237,0.00371535,0.00000178,
 -0.00002490,0.00325901,-0.00000513,-0.00044905,-0.03234146,0.,0.,-0.00
 000199,0.,-0.00000002,0.00001273,0.,0.,0.00000331,0.,-0.00000001,0.000
 00565,0.00000018,-0.00000023,0.00008858,0.,-0.00000004,0.00002853,0.,0
 .,0.00001145,-0.00000003,0.,0.00000818,0.00000005,-0.00000001,0.000048
 74,-0.00000002,0.00000002,-0.00000805,0.00000270,-0.00000091,0.0017192
 3,-0.00000007,0.00000003,0.00001014,-0.00000028,0.00000027,-0.00038718
 ,-0.00000048,-0.00000032,0.00015586,-0.00000076,0.00050002,0.01743618,
 -0.00021069,-0.00041301,-0.00000053,0.01995176,0.01230588,0.00002442,-
 0.00623741,-0.02183710,-0.00003382,-0.06976072,0.01731490,0.00001774,-
 0.00007289,-0.00019014,-0.00000028,-0.00004313,0.00023002,0.00000031,0
 .00020903,0.00007246,0.00000014,-0.00021742,-0.00020033,-0.00000033,0.
 00004396,-0.00000666,0.,-0.00017712,0.00018520,0.00000011,0.00006686,-
 0.00011819,-0.00000016,-0.00007673,0.00005099,0.00000005,0.00076747,0.
 00029598,0.00000066,-0.00074957,0.00086853,0.00000122,0.00303556,-0.00
 677152,-0.00000797,-0.00064392,0.00021737,0.00000017,0.00047824,0.0003
 8379,0.00000065,-0.00155143,-0.00030608,-0.00000077,0.00147204,-0.0012
 2218,-0.00000135,-0.00273989,-0.00003320,-0.00000051,0.00168506,-0.000
 63073,-0.00000054,-0.00210395,0.00274002,0.00000326,0.00777142,0.00063
 155,0.00000249,-0.03296441,0.00653590,0.00000160,0.00045223,-0.0049067
 1,-0.00000634,0.01123949,0.03564000,0.00005155,-0.00000240,-0.00000227
 ,-0.00000001,-0.00000585,0.00019064,0.00000028,0.00002194,0.00000195,0
 .00000001,0.00001571,0.00000286,0.,-0.00034371,0.00057468,0.00000056,0
 .00003773,0.00003148,0.00000005,0.00001078,0.00001006,0.00000004,-0.00
 003619,0.00002033,0.00000003,-0.00000045,-0.00004096,-0.00000007,0.000
 02464,-0.00004186,-0.00000006,-0.00017012,-0.00037750,-0.00000060,0.00
 019587,-0.00008793,-0.00000006,-0.00020640,-0.00022393,-0.00000035,-0.
 00068667,0.00218948,0.00000270,-0.00544386,0.00299244,0.00000172,0.076
 96514,0.00302898,0.00158878,0.00000352,0.04725000,-0.01085004,0.000012
 34,-0.01239683,0.00607692,-0.00000545,0.01923862,-0.25891365,-0.000302
 59,0.00031661,0.00040559,0.00000068,0.00007226,-0.00038716,-0.00000055
 ,-0.00059703,0.00020743,0.00000011,0.00048808,-0.00058360,-0.00000070,
 -0.00049659,0.00044889,0.00000050,0.00116744,-0.00019341,-0.00000073,0
 .00002174,-0.00015695,-0.00000027,-0.00031482,0.00075017,0.00000093,-0
 .00185259,-0.00041591,-0.00000054,0.00094368,0.00026772,0.00000165,-0.
 00164741,0.00416607,0.00001092,-0.00146416,0.00094980,0.00000104,0.000
 65104,-0.00001324,0.00000014,-0.00200130,-0.00017886,-0.00000064,0.002
 11307,-0.00242465,-0.00000273,-0.00427074,-0.00053795,-0.00000080,0.00
 284483,-0.00166868,-0.00000188,-0.00379091,0.00573887,0.00000645,0.015
 67880,-0.00096719,0.00000129,-0.03495145,0.02604460,0.00002734,0.00232
 484,-0.00929714,-0.00000969,0.01826865,-0.00772799,-0.00001296,0.00002
 343,-0.00005208,-0.00000012,0.00000107,0.00010215,0.00000021,0.0000279
 9,-0.00000920,0.,0.00002852,0.00000517,0.,-0.00187043,-0.00262188,-0.0
 0000515,0.00001346,0.00000971,0.,0.00003804,0.00000143,0.00000014,-0.0
 0010192,0.00003356,0.00000006,-0.00000065,-0.00004433,-0.00000011,0.00
 000807,-0.00003652,-0.00000007,-0.00009338,-0.00023401,-0.00000056,0.0
 0044916,-0.00022522,-0.00000012,-0.00053291,-0.00037162,-0.00000056,-0
 .00121054,-0.00042716,-0.00000228,-0.00132852,0.00228630,-0.00000505,-
 0.04607620,0.24925527,0.00000430,0.00000275,-0.00043657,0.00007347,0.0
 0000455,-0.01214096,-0.00002057,-0.00000756,0.00799212,0.00002045,-0.0
 0030301,-0.04029733,0.00000043,0.00000057,-0.00002860,0.00000009,-0.00
 000051,0.00001276,-0.00000080,0.00000026,0.00003140,0.00000064,-0.0000
 0085,-0.00000871,-0.00000069,0.00000061,0.00001513,0.00000149,-0.00000
 095,0.00050989,0.00000004,-0.00000030,0.00003876,-0.00000047,0.0000010
 1,0.00004111,-0.00000236,-0.00000006,-0.00032543,0.00000133,0.00000163
 ,-0.00075932,-0.00000077,0.00000978,-0.00387471,-0.00000219,0.00000142
 ,-0.00002581,0.00000102,0.00000008,-0.00000661,-0.00000315,-0.00000026
 ,-0.00004334,0.00000333,-0.00000347,-0.00014383,-0.00000646,0.00000015
 ,-0.00064771,0.00000434,-0.00000266,0.00012595,-0.00000591,0.00000791,
 0.00054075,0.00002360,-0.00000206,0.00060242,-0.00005663,0.00003659,0.
 00101327,0.00000382,-0.00001130,-0.00202268,0.00002716,-0.00000909,0.0
 0440586,0.00000002,-0.00000013,0.00003944,0.00000001,0.00000025,-0.000
 04486,0.00000005,0.,-0.00001188,0.00000004,0.,0.00000558,-0.00000287,-
 0.00000460,0.00074720,0.00000003,0.,0.00000787,0.00000008,0.00000014,-
 0.00009322,-0.00000015,0.00000009,-0.00002746,0.,-0.00000012,0.0000347
 7,0.00000001,-0.00000008,0.00001447,-0.00000020,-0.00000063,0.00015317
 ,0.00000069,-0.00000024,-0.00006721,-0.00000078,-0.00000049,-0.0000573
 5,-0.00000207,-0.00000152,0.00100188,-0.00000434,-0.00000409,0.0056711
 8,-0.00005600,0.00028620,0.03805864\\-0.00000007,0.00000019,0.,-0.0000
 0007,0.00000005,0.,0.00000012,-0.00000007,0.,-0.00000006,-0.00000005,0
 .,0.,-0.00000008,0.,0.00000008,0.00000011,0.,-0.00000022,0.00000010,0.
 ,0.00000001,0.00000026,0.,0.,0.,0.,-0.00000013,0.00000005,0.,-0.000000
 32,0.00000005,0.,-0.00000010,-0.00000014,0.,0.00000024,-0.00000026,0.,
 0.00000001,-0.00000013,-0.00000001,0.00000019,0.00000007,0.,0.,0.00000
 005,0.,0.00000006,-0.00000008,0.,-0.00000020,-0.00000009,0.,-0.0000000
 6,0.00000008,0.,-0.00000006,-0.00000002,0.,-0.00000022,-0.00000007,0.,
 -0.00000004,-0.00000004,0.,0.00000006,-0.00000008,0.,0.00000021,-0.000
 00020,0.,0.00000017,-0.00000003,0.,0.00000007,-0.00000001,0.,0.0000000
 6,0.00000005,0.,0.00000016,0.00000009,0.,0.00000007,0.00000005,0.,0.00
 000008,0.00000009,0.,-0.00000013,-0.00000004,0.,-0.00000002,0.00000005
 ,0.,0.00000002,0.00000007,0.,0.00000003,-0.00000006,0.,0.00000002,-0.0
 0000007,0.,0.,-0.00000006,0.,0.00000005,0.,0.,0.00000001,-0.00000005,0
 .,0.00000003,-0.00000002,0.,-0.00000002,0.00000016,0.,-0.00000003,0.00
 000004,0.,-0.00000001,0.00000004,0.\\\@


 WAR ES EIN GOTT DER DIESE ZEICHEN SCHRIEB?
          - LUDWIG BOLTZMANN, QUOTING GOETHE, ABOUT MAXWELL'S EQUATIONS.
 Job cpu time:       0 days  7 hours 41 minutes 20.2 seconds.
 Elapsed time:       0 days  7 hours 43 minutes  3.2 seconds.
 File lengths (MBytes):  RWF=   3652 Int=      0 D2E=      0 Chk=     93 Scr=      1
 Normal termination of Gaussian 16 at Wed Aug 25 03:22:22 2021.
