 Entering Gaussian System, Link 0=gdv
 Input=hcn_ccpvdz_pb4f1.gjf
 Output=hcn_ccpvdz_pb4f1.log
 Initial command:
 /home/software/gaussian/gdv/j19/gdv/l1.exe "/home/aodongliu/GauScr/Gau-421071.inp" -scrdir="/home/aodongliu/GauScr/" -exedir="/home/aodongliu/neo_scf/exe-dir:/home/software/gaussian/gdv/j19/gdv/bsd:/home/software/gaussian/gdv/j19/gdv/local:/home/software/gaussian/gdv/j19/gdv/extras:/home/software/gaussian/gdv/j19/gdv"
 Entering Link 1 = /home/software/gaussian/gdv/j19/gdv/l1.exe PID=    421072.
  
 Copyright (c) 1988-2021, Gaussian, Inc.  All Rights Reserved.
  
 This is the private, development version of
 the Gaussian(R) DV system of programs. It is based on
 the Gaussian(R) 16 system (copyright 2016, Gaussian, Inc.),
 the Gaussian(R) 09 system (copyright 2009, Gaussian, Inc.),
 the Gaussian(R) 03 system (copyright 2003, Gaussian, Inc.),
 the Gaussian(R) 98 system (copyright 1998, Gaussian, Inc.),
 the Gaussian(R) 94 system (copyright 1995, Gaussian, Inc.),
 the Gaussian 92(TM) system (copyright 1992, Gaussian, Inc.),
 the Gaussian 90(TM) system (copyright 1990, Gaussian, Inc.),
 the Gaussian 88(TM) system (copyright 1988, Gaussian, Inc.),
 the Gaussian 86(TM) system (copyright 1986, Carnegie Mellon
 University), and the Gaussian 82(TM) system (copyright 1983,
 Carnegie Mellon University). Gaussian is a federally registered
 trademark of Gaussian, Inc.
  
 This software contains proprietary and confidential information,
 including trade secrets, belonging to Gaussian, Inc.
  
 This software is provided under written license and may be
 used, copied, transmitted, or stored only in accord with that
 written license.
  
 The following legend is applicable only to US Government
 contracts under FAR:
  
                    RESTRICTED RIGHTS LEGEND
  
 Use, reproduction and disclosure by the US Government is
 subject to restrictions as set forth in subparagraphs (a)
 and (c) of the Commercial Computer Software - Restricted
 Rights clause in FAR 52.227-19.
  
 Gaussian, Inc.
 340 Quinnipiac St., Bldg. 40, Wallingford CT 06492
  
  
 ---------------------------------------------------------------
 Warning -- This program may not be used in any manner that
 competes with the business of Gaussian, Inc. or will provide
 assistance to any competitor of Gaussian, Inc.  The licensee
 of this program is prohibited from giving any competitor of
 Gaussian, Inc. access to this program.  By using this program,
 the user acknowledges that Gaussian, Inc. is engaged in the
 business of creating and licensing software in the field of
 computational chemistry and represents and warrants to the
 licensee that it is not a competitor of Gaussian, Inc. and that
 it will not use this program in any manner prohibited above.
 ---------------------------------------------------------------
  

 Cite this work as:
 Gaussian Development Version, Revision J.19,
 M. J. Frisch, G. W. Trucks, H. B. Schlegel, G. E. Scuseria, 
 M. A. Robb, J. R. Cheeseman, G. Scalmani, V. Barone, 
 G. A. Petersson, H. Nakatsuji, X. Li, A. V. Marenich, M. Caricato, 
 J. Bloino, B. G. Janesko, J. Zheng, R. Gomperts, B. Mennucci, 
 H. P. Hratchian, J. V. Ortiz, A. F. Izmaylov, J. L. Sonnenberg, 
 D. Williams-Young, F. Ding, F. Lipparini, F. Egidi, J. Goings, 
 B. Peng, A. Petrone, T. Henderson, D. Ranasinghe, V. G. Zakrzewski, 
 J. Gao, N. Rega, G. Zheng, W. Liang, M. Hada, M. Ehara, K. Toyota, 
 R. Fukuda, J. Hasegawa, M. Ishida, T. Nakajima, Y. Honda, O. Kitao, 
 H. Nakai, T. Vreven, K. Throssell, J. A. Montgomery, Jr., 
 J. E. Peralta, F. Ogliaro, M. J. Bearpark, J. J. Heyd, 
 E. N. Brothers, K. N. Kudin, V. N. Staroverov, T. A. Keith, 
 R. Kobayashi, J. Normand, K. Raghavachari, A. P. Rendell, 
 J. C. Burant, S. S. Iyengar, J. Tomasi, M. Cossi, J. M. Millam, 
 M. Klene, C. Adamo, R. Cammi, J. W. Ochterski, R. L. Martin, 
 K. Morokuma, O. Farkas, J. B. Foresman, and D. J. Fox, 
 Gaussian, Inc., Wallingford CT, 2020.
 
 ******************************************
 Gaussian DV:  ES64L-GDVRevJ.19 27-Nov-2021
                15-Jun-2022 
 ******************************************
 %mem=50gb
 %nproc=5
 Will use up to    5 processors via shared memory.
 ----------------------------------------------------------------------
 #p rhf/cc-pvdz test neo=gen gfinput guess=print # iop33(3=2,4=2,5=2) i
 op(5/73=0,5/81=0) nosymm
 ----------------------------------------------------------------------
 1/37=210000000,38=1,172=1/1;
 2/12=2,15=1/2;
 3/5=16,11=1,24=10,25=1,30=1,33=2,116=1,187=7/1,2,3;
 4/10=1,33=2/1;
 5/5=2,33=2,38=5/2;
 6/7=2,8=2,9=2,10=2,28=1/1;
 99/5=1,9=1/99;
 Leave Link    1 at Wed Jun 15 18:20:31 2022, MaxMem=  6710886400 cpu:               0.1 elap:               0.1
 (Enter /home/software/gaussian/gdv/j19/gdv/l101.exe)
 ---
 hcn
 ---
 Symbolic Z-matrix:
 Charge =  0 Multiplicity = 1
 c                     0.        0.       -0.49687 
 h                     0.        0.       -1.56687 
 n                     0.        0.        0.64973 
 
 ITRead=  0  0  0
 MicOpt= -1 -1 -1
 NAtoms=      3 NQM=        3 NQMF=       0 NMMI=      0 NMMIF=      0
                NMic=       0 NMicF=      0.
                    Isotopes and Nuclear Properties:
 (Nuclear quadrupole moments (NQMom) in fm**2, nuclear magnetic moments (NMagM)
  in nuclear magnetons)

  Atom         1           2           3
 IAtWgt=          12           1          14
 AtmWgt=  12.0000000   1.0078250  14.0030740
 NucSpn=           0           1           2
 AtZEff=   0.0000000   0.0000000   0.0000000
 NQMom=    0.0000000   0.0000000   2.0440000
 NMagM=    0.0000000   2.7928460   0.4037610
 AtZNuc=   6.0000000   1.0000000   7.0000000
 Leave Link  101 at Wed Jun 15 18:20:31 2022, MaxMem=  6710886400 cpu:               0.5 elap:               0.5
 (Enter /home/software/gaussian/gdv/j19/gdv/l202.exe)
                          Input orientation:                          
 ---------------------------------------------------------------------
 Center     Atomic      Atomic             Coordinates (Angstroms)
 Number     Number       Type             X           Y           Z
 ---------------------------------------------------------------------
      1          6           0        0.000000    0.000000   -0.496871
      2          1           0        0.000000    0.000000   -1.566871
      3          7           0        0.000000    0.000000    0.649729
 ---------------------------------------------------------------------
                    Distance matrix (angstroms):
                    1          2          3
     1  C    0.000000
     2  H    1.070000   0.000000
     3  N    1.146600   2.216600   0.000000
 Symmetry turned off by external request.
 Stoichiometry    CHN
 Framework group  C*V[C*(HCN)]
 Deg. of freedom     2
 Full point group                 C*V     NOp   4
 Rotational constants (GHZ):           0.0000000          44.8885632          44.8885632
 Leave Link  202 at Wed Jun 15 18:20:31 2022, MaxMem=  6710886400 cpu:               0.1 elap:               0.0
 (Enter /home/software/gaussian/gdv/j19/gdv/l301.exe)
                         Coordinates in L301:                         
 ---------------------------------------------------------------------
 Center     Atomic      Atomic             Coordinates (Angstroms)
 Number     Number       Type             X           Y           Z
 ---------------------------------------------------------------------
      1          6           0        0.000000    0.000000   -0.496871
      2          1           0        0.000000    0.000000   -1.566871
      3          7           0        0.000000    0.000000    0.649729
 ---------------------------------------------------------------------
 Standard basis: CC-pVDZ (5D, 7F)
 FixB: optimizing general contractions.
 Ernie: Thresh=  0.10000D-02 Tol=  0.10000D-05 Strict=F.
 IA=     1 ShT= 0 ShC= 0 NL=   3 NS=   1.
         I=   1 JX=   1 NP=   8
         I=   2 JX=   2 NP=   8
         I=   3 JX=   3 NP=   1
 IA=     1 L=0 SC=0 ISt=    1 NBk=    2 NP=    8 IndPr=    0.
 DoElim1:  L=0 select primitive    2 from    2 using    1 C= 5.33D-03
 DoElim2:  L=0 select primitive    8 from    1 using    2 C= 5.48D-01
 Delete L=0 primitive    2 from    2 C=  3.83D-20.
 Delete L=0 primitive    8 from    1 C=  7.71D-19.
 IA=     1 L=0 SC=0 ISt=    0 NBk=    0 NP=    0 IndPr=   14.
 IA=     1 ShT= 1 ShC= 1 NL=   2 NS=   1.
         I=   1 JX=   4 NP=   3
         I=   2 JX=   5 NP=   1
 IA=     1 L=1 SC=1 ISt=    0 NBk=    0 NP=    0 IndPr=    0.
 IA=     1 ShT= 2 ShC= 2 NL=   1 NS=   1.
         I=   1 JX=   1 NP=   8
 IA=     1 L=2 SC=2 ISt=    0 NBk=    0 NP=    0 IndPr=    0.
 IA=     2 ShT= 0 ShC= 0 NL=   2 NS=   1.
         I=   1 JX=   7 NP=   3
         I=   2 JX=   8 NP=   1
 IA=     2 L=0 SC=0 ISt=    0 NBk=    0 NP=    0 IndPr=    0.
 IA=     2 ShT= 1 ShC= 1 NL=   1 NS=   1.
         I=   1 JX=   1 NP=   8
 IA=     2 L=1 SC=1 ISt=    0 NBk=    0 NP=    0 IndPr=    0.
 IA=     3 ShT= 0 ShC= 0 NL=   3 NS=   1.
         I=   1 JX=  10 NP=   8
         I=   2 JX=  11 NP=   8
         I=   3 JX=  12 NP=   1
 IA=     3 L=0 SC=0 ISt=    1 NBk=    2 NP=    8 IndPr=    0.
 DoElim1:  L=0 select primitive    2 from    2 using    1 C= 5.39D-03
 DoElim2:  L=0 select primitive    8 from    1 using    2 C= 5.52D-01
 Delete L=0 primitive    2 from    2 C=  3.14D-20.
 Delete L=0 primitive    8 from    1 C=  5.91D-19.
 IA=     3 L=0 SC=0 ISt=    0 NBk=    0 NP=    0 IndPr=   14.
 IA=     3 ShT= 1 ShC= 1 NL=   2 NS=   1.
         I=   1 JX=  13 NP=   3
         I=   2 JX=  14 NP=   1
 IA=     3 L=1 SC=1 ISt=    0 NBk=    0 NP=    0 IndPr=    0.
 IA=     3 ShT= 2 ShC= 2 NL=   1 NS=   1.
         I=   1 JX=   1 NP=   8
 IA=     3 L=2 SC=2 ISt=    0 NBk=    0 NP=    0 IndPr=    0.
 Ernie:  4 primitive shells out of 49 were deleted.
    33 AO functions
 Electric field displacement of shell     1 is  0.00D+00
 Electric field displacement of shell     2 is  0.00D+00
 Electric field displacement of shell     3 is  0.00D+00
 Electric field displacement of shell     4 is  0.00D+00
 Electric field displacement of shell     5 is  0.00D+00
 Electric field displacement of shell     6 is  0.00D+00
 Electric field displacement of shell     7 is  0.00D+00
 Electric field displacement of shell     8 is  0.00D+00
 Electric field displacement of shell     9 is  0.00D+00
 Electric field displacement of shell    10 is  0.00D+00
 Electric field displacement of shell    11 is  0.00D+00
 Electric field displacement of shell    12 is  0.00D+00
 Electric field displacement of shell    13 is  0.00D+00
 Electric field displacement of shell    14 is  0.00D+00
 Electric field displacement of shell    15 is  0.00D+00
 AO basis set in the form of general basis input (Overlap normalization):
      1 0
 S   7 1.00       0.000000000000
      0.6665000000D+04  0.6935163173D-03
      0.1000000000D+04  0.5341502433D-02
      0.2280000000D+03  0.2713667141D-01
      0.6471000000D+02  0.1019923853D+00
      0.2106000000D+02  0.2755086365D+00
      0.7495000000D+01  0.4510864331D+00
      0.2797000000D+01  0.2875657448D+00
 S   7 1.00       0.000000000000
      0.6665000000D+04  0.7733547404D-05
      0.2280000000D+03  0.2780721367D-03
      0.6471000000D+02 -0.2578756542D-02
      0.2106000000D+02 -0.8950876838D-02
      0.7495000000D+01 -0.1060588547D+00
      0.2797000000D+01 -0.1315176856D+00
      0.5215000000D+00  0.1099486598D+01
 S   1 1.00       0.000000000000
      0.1596000000D+00  0.1000000000D+01
 P   3 1.00       0.000000000000
      0.9439000000D+01  0.5697925159D-01
      0.2002000000D+01  0.3132072115D+00
      0.5456000000D+00  0.7603767417D+00
 P   1 1.00       0.000000000000
      0.1517000000D+00  0.1000000000D+01
 D   1 1.00       0.000000000000
      0.5500000000D+00  0.1000000000D+01
 ****
      2 0
 S   3 1.00       0.000000000000
      0.1301000000D+02  0.3349872639D-01
      0.1962000000D+01  0.2348008012D+00
      0.4446000000D+00  0.8136829579D+00
 S   1 1.00       0.000000000000
      0.1220000000D+00  0.1000000000D+01
 P   1 1.00       0.000000000000
      0.7270000000D+00  0.1000000000D+01
 ****
      3 0
 S   7 1.00       0.000000000000
      0.9046000000D+04  0.7017087426D-03
      0.1357000000D+04  0.5402998803D-02
      0.3093000000D+03  0.2747295103D-01
      0.8773000000D+02  0.1035145797D+00
      0.2856000000D+02  0.2795865786D+00
      0.1021000000D+02  0.4513172405D+00
      0.3838000000D+01  0.2806268749D+00
 S   7 1.00       0.000000000000
      0.9046000000D+04  0.7774467966D-05
      0.3093000000D+03  0.3007420716D-03
      0.8773000000D+02 -0.2800165487D-02
      0.2856000000D+02 -0.9897085049D-02
      0.1021000000D+02 -0.1143311135D+00
      0.3838000000D+01 -0.1181623826D+00
      0.7466000000D+00  0.1097868854D+01
 S   1 1.00       0.000000000000
      0.2248000000D+00  0.1000000000D+01
 P   3 1.00       0.000000000000
      0.1355000000D+02  0.5890567677D-01
      0.2917000000D+01  0.3204611067D+00
      0.7973000000D+00  0.7530420618D+00
 P   1 1.00       0.000000000000
      0.2185000000D+00  0.1000000000D+01
 D   1 1.00       0.000000000000
      0.8170000000D+00  0.1000000000D+01
 ****
  
 LdAtmC:  AtmChg=     6.000000     1.000000     7.000000
 AtDip 
                 1             2             3 
      1   0.000000D+00  0.000000D+00  0.000000D+00
      2   0.000000D+00  0.000000D+00  0.000000D+00
      3   0.000000D+00  0.000000D+00  0.000000D+00
 AtQua 
                 1             2             3             4             5 
      1   0.000000D+00  0.000000D+00  0.000000D+00  0.000000D+00  0.000000D+00
      2   0.000000D+00  0.000000D+00  0.000000D+00  0.000000D+00  0.000000D+00
      3   0.000000D+00  0.000000D+00  0.000000D+00  0.000000D+00  0.000000D+00
                 6 
      1   0.000000D+00
      2   0.000000D+00
      3   0.000000D+00
 AtPol 
                 1 
      1   0.000000D+00
      2   0.000000D+00
      3   0.000000D+00
 GetPMM: IRwPM=    824 LRwPM=      0 LPMAll=      2
 General NEO basis read from cards:  (5D, 7F)
 Centers:       2
 S 1 1.00
     Exponent=  2.8950000000D+01 Coefficients=  1.0000000000D+00
 S 1 1.00
     Exponent=  1.7943000000D+01 Coefficients=  1.0000000000D+00
 S 1 1.00
     Exponent=  1.0645000000D+01 Coefficients=  1.0000000000D+00
 S 1 1.00
     Exponent=  5.9730000000D+00 Coefficients=  1.0000000000D+00
 P 1 1.00
     Exponent=  2.3308000000D+01 Coefficients=  1.0000000000D+00
 P 1 1.00
     Exponent=  1.4701000000D+01 Coefficients=  1.0000000000D+00
 P 1 1.00
     Exponent=  7.6040000000D+00 Coefficients=  1.0000000000D+00
 D 1 1.00
     Exponent=  1.9787000000D+01 Coefficients=  1.0000000000D+00
 D 1 1.00
     Exponent=  9.0110000000D+00 Coefficients=  1.0000000000D+00
 F 1 1.00
     Exponent=  1.0914000000D+01 Coefficients=  1.0000000000D+00
 ****
    30 NEO functions
 Electric field displacement of shell     1 is  0.00D+00
 Electric field displacement of shell     2 is  0.00D+00
 Electric field displacement of shell     3 is  0.00D+00
 Electric field displacement of shell     4 is  0.00D+00
 Electric field displacement of shell     5 is  0.00D+00
 Electric field displacement of shell     6 is  0.00D+00
 Electric field displacement of shell     7 is  0.00D+00
 Electric field displacement of shell     8 is  0.00D+00
 Electric field displacement of shell     9 is  0.00D+00
 Electric field displacement of shell    10 is  0.00D+00
 NEO basis set in the form of general basis input (Overlap normalization):
      2 0
 S   1 1.00       0.000000000000
      0.2895000000D+02  0.1000000000D+01
 S   1 1.00       0.000000000000
      0.1794300000D+02  0.1000000000D+01
 S   1 1.00       0.000000000000
      0.1064500000D+02  0.1000000000D+01
 S   1 1.00       0.000000000000
      0.5973000000D+01  0.1000000000D+01
 P   1 1.00       0.000000000000
      0.2330800000D+02  0.1000000000D+01
 P   1 1.00       0.000000000000
      0.1470100000D+02  0.1000000000D+01
 P   1 1.00       0.000000000000
      0.7604000000D+01  0.1000000000D+01
 D   1 1.00       0.000000000000
      0.1978700000D+02  0.1000000000D+01
 D   1 1.00       0.000000000000
      0.9011000000D+01  0.1000000000D+01
 F   1 1.00       0.000000000000
      0.1091400000D+02  0.1000000000D+01
 ****
  
 Using NEO mass 1836.152656 electrons.
 AtZEff=     -3.6000000     -1.0000000     -4.5500000
    33 basis functions,    73 primitive gaussians,    35 cartesian basis functions
     7 alpha electrons        7 beta electrons
       nuclear repulsion energy        19.3837806198 Hartrees.
 IS=     1 IAt=     1 ISR=     1 T=0 IP=      1 IndIP=      1 IndIPD=      0 C=  3.646002D-01  0.000000D+00                             NZ=T
 IS=     1 IAt=     1 ISR=     1 T=0 IP=      2 IndIP=      2 IndIPD=      1 C=  6.769764D-01  0.000000D+00                             NZ=T
 IS=     1 IAt=     1 ISR=     1 T=0 IP=      3 IndIP=      3 IndIPD=      2 C=  1.134796D+00  0.000000D+00                             NZ=T
 IS=     1 IAt=     1 ISR=     1 T=0 IP=      4 IndIP=      4 IndIPD=      3 C=  1.658465D+00  0.000000D+00                             NZ=T
 IS=     1 IAt=     1 ISR=     1 T=0 IP=      5 IndIP=      5 IndIPD=      4 C=  1.930363D+00  0.000000D+00                             NZ=T
 IS=     1 IAt=     1 ISR=     1 T=0 IP=      6 IndIP=      6 IndIPD=      5 C=  1.456292D+00  0.000000D+00                             NZ=T
 IS=     1 IAt=     1 ISR=     1 T=0 IP=      7 IndIP=      7 IndIPD=      6 C=  4.432682D-01  0.000000D+00                             NZ=T
 IS=     2 IAt=     1 ISR=     2 T=0 IP=      1 IndIP=      8 IndIPD=      0 C=  4.065734D-03  0.000000D+00                             NZ=T
 IS=     2 IAt=     1 ISR=     2 T=0 IP=      2 IndIP=      9 IndIPD=      1 C=  1.162837D-02  0.000000D+00                             NZ=T
 IS=     2 IAt=     1 ISR=     2 T=0 IP=      3 IndIP=     10 IndIPD=      2 C= -4.193233D-02  0.000000D+00                             NZ=T
 IS=     2 IAt=     1 ISR=     2 T=0 IP=      4 IndIP=     11 IndIPD=      3 C= -6.271471D-02  0.000000D+00                             NZ=T
 IS=     2 IAt=     1 ISR=     2 T=0 IP=      5 IndIP=     12 IndIPD=      4 C= -3.424016D-01  0.000000D+00                             NZ=T
 IS=     2 IAt=     1 ISR=     2 T=0 IP=      6 IndIP=     13 IndIPD=      5 C= -2.027279D-01  0.000000D+00                             NZ=T
 IS=     2 IAt=     1 ISR=     2 T=0 IP=      7 IndIP=     14 IndIPD=      6 C=  4.808845D-01  0.000000D+00                             NZ=T
 IS=     3 IAt=     1 ISR=     3 T=0 IP=      1 IndIP=     15 IndIPD=      0 C=  1.799636D-01  0.000000D+00                             NZ=T
 IS=     4 IAt=     1 ISR=     4 T=1 IP=      1 IndIP=     16 IndIPD=      0 C=  0.000000D+00  1.343737D+00                             NZ=T
 IS=     4 IAt=     1 ISR=     4 T=1 IP=      2 IndIP=     17 IndIPD=      1 C=  0.000000D+00  1.063168D+00                             NZ=T
 IS=     4 IAt=     1 ISR=     4 T=1 IP=      3 IndIP=     18 IndIPD=      2 C=  0.000000D+00  5.082318D-01                             NZ=T
 IS=     5 IAt=     1 ISR=     5 T=1 IP=      1 IndIP=     19 IndIPD=      0 C=  0.000000D+00  1.349497D-01                             NZ=T
 IS=     6 IAt=     1 ISR=     6 T=2 IP=      1 IndIP=     20 IndIPD=      1 C=  0.000000D+00  0.000000D+00  5.781548D-01  0.000000D+00 NZ=T
 IS=     7 IAt=     2 ISR=     1 T=0 IP=      1 IndIP=     21 IndIPD=      0 C=  1.635484D-01  0.000000D+00                             NZ=T
 IS=     7 IAt=     2 ISR=     1 T=0 IP=      2 IndIP=     22 IndIPD=      1 C=  2.774175D-01  0.000000D+00                             NZ=T
 IS=     7 IAt=     2 ISR=     1 T=0 IP=      3 IndIP=     23 IndIPD=      2 C=  3.157493D-01  0.000000D+00                             NZ=T
 IS=     8 IAt=     2 ISR=     2 T=0 IP=      1 IndIP=     24 IndIPD=      0 C=  1.471228D-01  0.000000D+00                             NZ=T
 IS=     9 IAt=     2 ISR=     3 T=1 IP=      1 IndIP=     25 IndIPD=      0 C=  0.000000D+00  9.568814D-01                             NZ=T
 IS=    10 IAt=     3 ISR=     1 T=0 IP=      1 IndIP=     26 IndIPD=      0 C=  4.638840D-01  0.000000D+00                             NZ=T
 IS=    10 IAt=     3 ISR=     1 T=0 IP=      2 IndIP=     27 IndIPD=      1 C=  8.609538D-01  0.000000D+00                             NZ=T
 IS=    10 IAt=     3 ISR=     1 T=0 IP=      3 IndIP=     28 IndIPD=      2 C=  1.444110D+00  0.000000D+00                             NZ=T
 IS=    10 IAt=     3 ISR=     1 T=0 IP=      4 IndIP=     29 IndIPD=      3 C=  2.114817D+00  0.000000D+00                             NZ=T
 IS=    10 IAt=     3 ISR=     1 T=0 IP=      5 IndIP=     30 IndIPD=      4 C=  2.461756D+00  0.000000D+00                             NZ=T
 IS=    10 IAt=     3 ISR=     1 T=0 IP=      6 IndIP=     31 IndIPD=      5 C=  1.837221D+00  0.000000D+00                             NZ=T
 IS=    10 IAt=     3 ISR=     1 T=0 IP=      7 IndIP=     32 IndIPD=      6 C=  5.484261D-01  0.000000D+00                             NZ=T
 IS=    11 IAt=     3 ISR=     2 T=0 IP=      1 IndIP=     33 IndIPD=      0 C=  5.139528D-03  0.000000D+00                             NZ=T
 IS=    11 IAt=     3 ISR=     2 T=0 IP=      2 IndIP=     34 IndIPD=      1 C=  1.580845D-02  0.000000D+00                             NZ=T
 IS=    11 IAt=     3 ISR=     2 T=0 IP=      3 IndIP=     35 IndIPD=      2 C= -5.720775D-02  0.000000D+00                             NZ=T
 IS=    11 IAt=     3 ISR=     2 T=0 IP=      4 IndIP=     36 IndIPD=      3 C= -8.714371D-02  0.000000D+00                             NZ=T
 IS=    11 IAt=     3 ISR=     2 T=0 IP=      5 IndIP=     37 IndIPD=      4 C= -4.654187D-01  0.000000D+00                             NZ=T
 IS=    11 IAt=     3 ISR=     2 T=0 IP=      6 IndIP=     38 IndIPD=      5 C= -2.309235D-01  0.000000D+00                             NZ=T
 IS=    11 IAt=     3 ISR=     2 T=0 IP=      7 IndIP=     39 IndIPD=      6 C=  6.284584D-01  0.000000D+00                             NZ=T
 IS=    12 IAt=     3 ISR=     3 T=0 IP=      1 IndIP=     40 IndIPD=      0 C=  2.326791D-01  0.000000D+00                             NZ=T
 IS=    13 IAt=     3 ISR=     4 T=1 IP=      1 IndIP=     41 IndIPD=      0 C=  0.000000D+00  2.182837D+00                             NZ=T
 IS=    13 IAt=     3 ISR=     4 T=1 IP=      2 IndIP=     42 IndIPD=      1 C=  0.000000D+00  1.741350D+00                             NZ=T
 IS=    13 IAt=     3 ISR=     4 T=1 IP=      3 IndIP=     43 IndIPD=      2 C=  0.000000D+00  8.086983D-01                             NZ=T
 IS=    14 IAt=     3 ISR=     5 T=1 IP=      1 IndIP=     44 IndIPD=      0 C=  0.000000D+00  2.129386D-01                             NZ=T
 IS=    15 IAt=     3 ISR=     6 T=2 IP=      1 IndIP=     45 IndIPD=      2 C=  0.000000D+00  0.000000D+00  1.155575D+00  0.000000D+00 NZ=T
 IExCor=         0 DFT=F Ex=HF Corr=None N6=None ScaHFX=  1.000000
 ScaDFX=  1.000000  1.000000  1.000000  1.000000  1.000000  0.000000
 ScaDFX=  0.000000  0.000000  0.000000  0.000000  0.000000  0.000000
 IRadAn=      5 IRanWt=     -1 IRanGd=            0 ICorTp=0 IEmpDi=  4
 NAtoms=    3 NActive=    3 NUniq=    3 SFac= 1.00D+00 NAtFMM=   60 NAOKFM=F Big=F
 Integral buffers will be    131072 words long.
 Raffenetti 1 integral format.
 Two-electron integral symmetry is turned off.
 AtDip 
                 1             2             3 
      1   0.000000D+00  0.000000D+00  0.000000D+00
      2   0.000000D+00  0.000000D+00  0.000000D+00
      3   0.000000D+00  0.000000D+00  0.000000D+00
 AtQua 
                 1             2             3             4             5 
      1   0.000000D+00  0.000000D+00  0.000000D+00  0.000000D+00  0.000000D+00
      2   0.000000D+00  0.000000D+00  0.000000D+00  0.000000D+00  0.000000D+00
      3   0.000000D+00  0.000000D+00  0.000000D+00  0.000000D+00  0.000000D+00
                 6 
      1   0.000000D+00
      2   0.000000D+00
      3   0.000000D+00
 AtPol 
                 1 
      1   0.000000D+00
      2   0.000000D+00
      3   0.000000D+00
 Pair potential:
 Leave Link  301 at Wed Jun 15 18:20:32 2022, MaxMem=  6710886400 cpu:               0.2 elap:               0.2
 (Enter /home/software/gaussian/gdv/j19/gdv/l302.exe)
 GetPMM: IRwPM=    824 LRwPM=      0 LPMAll=      2
 AtDip 
                 1             2             3 
      1   0.000000D+00  0.000000D+00  0.000000D+00
      2   0.000000D+00  0.000000D+00  0.000000D+00
      3   0.000000D+00  0.000000D+00  0.000000D+00
 AtQua 
                 1             2             3             4             5 
      1   0.000000D+00  0.000000D+00  0.000000D+00  0.000000D+00  0.000000D+00
      2   0.000000D+00  0.000000D+00  0.000000D+00  0.000000D+00  0.000000D+00
      3   0.000000D+00  0.000000D+00  0.000000D+00  0.000000D+00  0.000000D+00
                 6 
      1   0.000000D+00
      2   0.000000D+00
      3   0.000000D+00
 AtPol 
                 1 
      1   0.000000D+00
      2   0.000000D+00
      3   0.000000D+00
 NPDir=0 NMtPBC=     1 NCelOv=     1 NCel=       1 NClECP=     1 NCelD=      1
         NCelK=      1 NCelE2=     1 NClLst=     1 CellRange=     0.0.
 One-electron integrals computed using PRISM.
 Entering OneElI...
 OneElI was handed  6710884817 working-precision words.
 Calculate overlap and kinetic energy integrals
    NBasis =  30  MinDer = 0  MaxDer = 0
 Requested accuracy = 0.1000D-12
 ShPair: Thresh= 1.00D-13 NBox=     0 BxSize= 0.00D+00 RnKept= 0.00D+00
         NSMCal=                   55 NSMKep=                  55
 PrSmSu:  IncTry=   512 NBBP=             55 NTPThr=   100 NPartT=    1 Incr=           1 LDynOK=F GPUOK=F.
 PrsmSu:  NPrtUS=   1 ThrOK=F IAlg=2 LenDen=           0 ISkipM=0 DoSpLW=F IThBeg=    0 IThEnd=    0.
 Prism:   IPart=     0 DynPar=F LinDyn=F Incr=           1.
 PRISM was handed  6710880200 working-precision words and    55 shell-pairs
 IPart=  0 NShTot=          55 NBatch=          10 AvBLen=         5.5
 PrsmSu-ThDecC:  IPartSL=    0    0 NPrtUSL=    1    1 IThBeg=    0 IThEnd=    0 CPU=   -1 GPU=   -1 NThAct=    0.
 PrSmSu:  NxtVal=              2.
 *** NEO Overlap *** 
                1             2             3             4             5 
      1  0.100000D+01
      2  0.958386D+00  0.100000D+01
      3  0.834988D+00  0.950714D+00  0.100000D+01
      4  0.653519D+00  0.805523D+00  0.940114D+00  0.100000D+01
      5  0.000000D+00  0.000000D+00  0.000000D+00  0.000000D+00  0.100000D+01
      6  0.000000D+00  0.000000D+00  0.000000D+00  0.000000D+00  0.000000D+00
      7  0.000000D+00  0.000000D+00  0.000000D+00  0.000000D+00  0.000000D+00
      8  0.000000D+00  0.000000D+00  0.000000D+00  0.000000D+00  0.936319D+00
      9  0.000000D+00  0.000000D+00  0.000000D+00  0.000000D+00  0.000000D+00
     10  0.000000D+00  0.000000D+00  0.000000D+00  0.000000D+00  0.000000D+00
     11  0.000000D+00  0.000000D+00  0.000000D+00  0.000000D+00  0.688559D+00
     12  0.000000D+00  0.000000D+00  0.000000D+00  0.000000D+00  0.000000D+00
     13  0.000000D+00  0.000000D+00  0.000000D+00  0.000000D+00  0.000000D+00
     14  0.000000D+00  0.000000D+00  0.000000D+00  0.000000D+00  0.000000D+00
     15  0.000000D+00  0.000000D+00  0.000000D+00  0.000000D+00  0.000000D+00
     16  0.000000D+00  0.000000D+00  0.000000D+00  0.000000D+00  0.000000D+00
     17  0.000000D+00  0.000000D+00  0.000000D+00  0.000000D+00  0.000000D+00
     18  0.000000D+00  0.000000D+00  0.000000D+00  0.000000D+00  0.000000D+00
     19  0.000000D+00  0.000000D+00  0.000000D+00  0.000000D+00  0.000000D+00
     20  0.000000D+00  0.000000D+00  0.000000D+00  0.000000D+00  0.000000D+00
     21  0.000000D+00  0.000000D+00  0.000000D+00  0.000000D+00  0.000000D+00
     22  0.000000D+00  0.000000D+00  0.000000D+00  0.000000D+00  0.000000D+00
     23  0.000000D+00  0.000000D+00  0.000000D+00  0.000000D+00  0.000000D+00
     24  0.000000D+00  0.000000D+00  0.000000D+00  0.000000D+00  0.000000D+00
     25  0.000000D+00  0.000000D+00  0.000000D+00  0.000000D+00  0.000000D+00
     26  0.000000D+00  0.000000D+00  0.000000D+00  0.000000D+00  0.000000D+00
     27  0.000000D+00  0.000000D+00  0.000000D+00  0.000000D+00  0.000000D+00
     28  0.000000D+00  0.000000D+00  0.000000D+00  0.000000D+00  0.000000D+00
     29  0.000000D+00  0.000000D+00  0.000000D+00  0.000000D+00  0.000000D+00
     30  0.000000D+00  0.000000D+00  0.000000D+00  0.000000D+00  0.000000D+00
                6             7             8             9            10 
      6  0.100000D+01
      7  0.000000D+00  0.100000D+01
      8  0.000000D+00  0.000000D+00  0.100000D+01
      9  0.936319D+00  0.000000D+00  0.000000D+00  0.100000D+01
     10  0.000000D+00  0.936319D+00  0.000000D+00  0.000000D+00  0.100000D+01
     11  0.000000D+00  0.000000D+00  0.875096D+00  0.000000D+00  0.000000D+00
     12  0.688559D+00  0.000000D+00  0.000000D+00  0.875096D+00  0.000000D+00
     13  0.000000D+00  0.688559D+00  0.000000D+00  0.000000D+00  0.875096D+00
     14  0.000000D+00  0.000000D+00  0.000000D+00  0.000000D+00  0.000000D+00
     15  0.000000D+00  0.000000D+00  0.000000D+00  0.000000D+00  0.000000D+00
     16  0.000000D+00  0.000000D+00  0.000000D+00  0.000000D+00  0.000000D+00
     17  0.000000D+00  0.000000D+00  0.000000D+00  0.000000D+00  0.000000D+00
     18  0.000000D+00  0.000000D+00  0.000000D+00  0.000000D+00  0.000000D+00
     19  0.000000D+00  0.000000D+00  0.000000D+00  0.000000D+00  0.000000D+00
     20  0.000000D+00  0.000000D+00  0.000000D+00  0.000000D+00  0.000000D+00
     21  0.000000D+00  0.000000D+00  0.000000D+00  0.000000D+00  0.000000D+00
     22  0.000000D+00  0.000000D+00  0.000000D+00  0.000000D+00  0.000000D+00
     23  0.000000D+00  0.000000D+00  0.000000D+00  0.000000D+00  0.000000D+00
     24  0.000000D+00  0.000000D+00  0.000000D+00  0.000000D+00  0.000000D+00
     25  0.000000D+00  0.000000D+00  0.000000D+00  0.000000D+00  0.000000D+00
     26  0.000000D+00  0.000000D+00  0.000000D+00  0.000000D+00  0.000000D+00
     27  0.000000D+00  0.000000D+00  0.000000D+00  0.000000D+00  0.000000D+00
     28  0.000000D+00  0.000000D+00  0.000000D+00  0.000000D+00  0.000000D+00
     29  0.000000D+00  0.000000D+00  0.000000D+00  0.000000D+00  0.000000D+00
     30  0.000000D+00  0.000000D+00  0.000000D+00  0.000000D+00  0.000000D+00
               11            12            13            14            15 
     11  0.100000D+01
     12  0.000000D+00  0.100000D+01
     13  0.000000D+00  0.000000D+00  0.100000D+01
     14  0.000000D+00  0.000000D+00  0.000000D+00  0.100000D+01
     15  0.000000D+00  0.000000D+00  0.000000D+00  0.000000D+00  0.100000D+01
     16  0.000000D+00  0.000000D+00  0.000000D+00  0.000000D+00  0.000000D+00
     17  0.000000D+00  0.000000D+00  0.000000D+00  0.000000D+00  0.000000D+00
     18  0.000000D+00  0.000000D+00  0.000000D+00  0.000000D+00  0.000000D+00
     19  0.000000D+00  0.000000D+00  0.000000D+00  0.767988D+00  0.000000D+00
     20  0.000000D+00  0.000000D+00  0.000000D+00  0.000000D+00  0.767988D+00
     21  0.000000D+00  0.000000D+00  0.000000D+00  0.000000D+00  0.000000D+00
     22  0.000000D+00  0.000000D+00  0.000000D+00  0.000000D+00  0.000000D+00
     23  0.000000D+00  0.000000D+00  0.000000D+00  0.000000D+00  0.000000D+00
     24  0.000000D+00  0.000000D+00  0.000000D+00  0.000000D+00  0.000000D+00
     25  0.000000D+00  0.000000D+00  0.000000D+00  0.000000D+00  0.000000D+00
     26  0.000000D+00  0.000000D+00  0.000000D+00  0.000000D+00  0.000000D+00
     27  0.000000D+00  0.000000D+00  0.000000D+00  0.000000D+00  0.000000D+00
     28  0.000000D+00  0.000000D+00  0.000000D+00  0.000000D+00  0.000000D+00
     29  0.000000D+00  0.000000D+00  0.000000D+00  0.000000D+00  0.000000D+00
     30  0.000000D+00  0.000000D+00  0.000000D+00  0.000000D+00  0.000000D+00
               16            17            18            19            20 
     16  0.100000D+01
     17  0.000000D+00  0.100000D+01
     18  0.000000D+00  0.000000D+00  0.100000D+01
     19  0.000000D+00  0.000000D+00  0.000000D+00  0.100000D+01
     20  0.000000D+00  0.000000D+00  0.000000D+00  0.000000D+00  0.100000D+01
     21  0.767988D+00  0.000000D+00  0.000000D+00  0.000000D+00  0.000000D+00
     22  0.000000D+00  0.767988D+00  0.000000D+00  0.000000D+00  0.000000D+00
     23  0.000000D+00  0.000000D+00  0.767988D+00  0.000000D+00  0.000000D+00
     24  0.000000D+00  0.000000D+00  0.000000D+00  0.000000D+00  0.000000D+00
     25  0.000000D+00  0.000000D+00  0.000000D+00  0.000000D+00  0.000000D+00
     26  0.000000D+00  0.000000D+00  0.000000D+00  0.000000D+00  0.000000D+00
     27  0.000000D+00  0.000000D+00  0.000000D+00  0.000000D+00  0.000000D+00
     28  0.000000D+00  0.000000D+00  0.000000D+00  0.000000D+00  0.000000D+00
     29  0.000000D+00  0.000000D+00  0.000000D+00  0.000000D+00  0.000000D+00
     30  0.000000D+00  0.000000D+00  0.000000D+00  0.000000D+00  0.000000D+00
               21            22            23            24            25 
     21  0.100000D+01
     22  0.000000D+00  0.100000D+01
     23  0.000000D+00  0.000000D+00  0.100000D+01
     24  0.000000D+00  0.000000D+00  0.000000D+00  0.100000D+01
     25  0.000000D+00  0.000000D+00  0.000000D+00  0.000000D+00  0.100000D+01
     26  0.000000D+00  0.000000D+00  0.000000D+00  0.000000D+00  0.000000D+00
     27  0.000000D+00  0.000000D+00  0.000000D+00  0.000000D+00  0.000000D+00
     28  0.000000D+00  0.000000D+00  0.000000D+00  0.000000D+00  0.000000D+00
     29  0.000000D+00  0.000000D+00  0.000000D+00  0.000000D+00  0.000000D+00
     30  0.000000D+00  0.000000D+00  0.000000D+00  0.000000D+00  0.000000D+00
               26            27            28            29            30 
     26  0.100000D+01
     27  0.000000D+00  0.100000D+01
     28  0.000000D+00  0.000000D+00  0.100000D+01
     29  0.000000D+00  0.000000D+00  0.000000D+00  0.100000D+01
     30  0.000000D+00  0.000000D+00  0.000000D+00  0.000000D+00  0.100000D+01
 *** NEO Kinetic Energy *** 
                1             2             3             4             5 
      1  0.236500D-01
      2  0.173456D-01  0.146581D-01
      3  0.106181D-01  0.103781D-01  0.869617D-02
      4  0.528689D-02  0.589779D-02  0.587696D-02  0.487950D-02
      5  0.000000D+00  0.000000D+00  0.000000D+00  0.000000D+00  0.317348D-01
      6  0.000000D+00  0.000000D+00  0.000000D+00  0.000000D+00  0.000000D+00
      7  0.000000D+00  0.000000D+00  0.000000D+00  0.000000D+00  0.000000D+00
      8  0.000000D+00  0.000000D+00  0.000000D+00  0.000000D+00  0.229853D-01
      9  0.000000D+00  0.000000D+00  0.000000D+00  0.000000D+00  0.000000D+00
     10  0.000000D+00  0.000000D+00  0.000000D+00  0.000000D+00  0.000000D+00
     11  0.000000D+00  0.000000D+00  0.000000D+00  0.000000D+00  0.107503D-01
     12  0.000000D+00  0.000000D+00  0.000000D+00  0.000000D+00  0.000000D+00
     13  0.000000D+00  0.000000D+00  0.000000D+00  0.000000D+00  0.000000D+00
     14  0.000000D+00  0.000000D+00  0.000000D+00  0.000000D+00  0.000000D+00
     15  0.000000D+00  0.000000D+00  0.000000D+00  0.000000D+00  0.000000D+00
     16  0.000000D+00  0.000000D+00  0.000000D+00  0.000000D+00  0.000000D+00
     17  0.000000D+00  0.000000D+00  0.000000D+00  0.000000D+00  0.000000D+00
     18  0.000000D+00  0.000000D+00  0.000000D+00  0.000000D+00  0.000000D+00
     19  0.000000D+00  0.000000D+00  0.000000D+00  0.000000D+00  0.000000D+00
     20  0.000000D+00  0.000000D+00  0.000000D+00  0.000000D+00  0.000000D+00
     21  0.000000D+00  0.000000D+00  0.000000D+00  0.000000D+00  0.000000D+00
     22  0.000000D+00  0.000000D+00  0.000000D+00  0.000000D+00  0.000000D+00
     23  0.000000D+00  0.000000D+00  0.000000D+00  0.000000D+00  0.000000D+00
     24  0.000000D+00  0.000000D+00  0.000000D+00  0.000000D+00  0.000000D+00
     25  0.000000D+00  0.000000D+00  0.000000D+00  0.000000D+00  0.000000D+00
     26  0.000000D+00  0.000000D+00  0.000000D+00  0.000000D+00  0.000000D+00
     27  0.000000D+00  0.000000D+00  0.000000D+00  0.000000D+00  0.000000D+00
     28  0.000000D+00  0.000000D+00  0.000000D+00  0.000000D+00  0.000000D+00
     29  0.000000D+00  0.000000D+00  0.000000D+00  0.000000D+00  0.000000D+00
     30  0.000000D+00  0.000000D+00  0.000000D+00  0.000000D+00  0.000000D+00
                6             7             8             9            10 
      6  0.317348D-01
      7  0.000000D+00  0.317348D-01
      8  0.000000D+00  0.000000D+00  0.200160D-01
      9  0.229853D-01  0.000000D+00  0.000000D+00  0.200160D-01
     10  0.000000D+00  0.229853D-01  0.000000D+00  0.000000D+00  0.200160D-01
     11  0.000000D+00  0.000000D+00  0.119427D-01  0.000000D+00  0.000000D+00
     12  0.107503D-01  0.000000D+00  0.000000D+00  0.119427D-01  0.000000D+00
     13  0.000000D+00  0.107503D-01  0.000000D+00  0.000000D+00  0.119427D-01
     14  0.000000D+00  0.000000D+00  0.000000D+00  0.000000D+00  0.000000D+00
     15  0.000000D+00  0.000000D+00  0.000000D+00  0.000000D+00  0.000000D+00
     16  0.000000D+00  0.000000D+00  0.000000D+00  0.000000D+00  0.000000D+00
     17  0.000000D+00  0.000000D+00  0.000000D+00  0.000000D+00  0.000000D+00
     18  0.000000D+00  0.000000D+00  0.000000D+00  0.000000D+00  0.000000D+00
     19  0.000000D+00  0.000000D+00  0.000000D+00  0.000000D+00  0.000000D+00
     20  0.000000D+00  0.000000D+00  0.000000D+00  0.000000D+00  0.000000D+00
     21  0.000000D+00  0.000000D+00  0.000000D+00  0.000000D+00  0.000000D+00
     22  0.000000D+00  0.000000D+00  0.000000D+00  0.000000D+00  0.000000D+00
     23  0.000000D+00  0.000000D+00  0.000000D+00  0.000000D+00  0.000000D+00
     24  0.000000D+00  0.000000D+00  0.000000D+00  0.000000D+00  0.000000D+00
     25  0.000000D+00  0.000000D+00  0.000000D+00  0.000000D+00  0.000000D+00
     26  0.000000D+00  0.000000D+00  0.000000D+00  0.000000D+00  0.000000D+00
     27  0.000000D+00  0.000000D+00  0.000000D+00  0.000000D+00  0.000000D+00
     28  0.000000D+00  0.000000D+00  0.000000D+00  0.000000D+00  0.000000D+00
     29  0.000000D+00  0.000000D+00  0.000000D+00  0.000000D+00  0.000000D+00
     30  0.000000D+00  0.000000D+00  0.000000D+00  0.000000D+00  0.000000D+00
               11            12            13            14            15 
     11  0.103532D-01
     12  0.000000D+00  0.103532D-01
     13  0.000000D+00  0.000000D+00  0.103532D-01
     14  0.000000D+00  0.000000D+00  0.000000D+00  0.377172D-01
     15  0.000000D+00  0.000000D+00  0.000000D+00  0.000000D+00  0.377172D-01
     16  0.000000D+00  0.000000D+00  0.000000D+00  0.000000D+00  0.000000D+00
     17  0.000000D+00  0.000000D+00  0.000000D+00  0.000000D+00  0.000000D+00
     18  0.000000D+00  0.000000D+00  0.000000D+00  0.000000D+00  0.000000D+00
     19  0.000000D+00  0.000000D+00  0.000000D+00  0.181274D-01  0.000000D+00
     20  0.000000D+00  0.000000D+00  0.000000D+00  0.000000D+00  0.181274D-01
     21  0.000000D+00  0.000000D+00  0.000000D+00  0.000000D+00  0.000000D+00
     22  0.000000D+00  0.000000D+00  0.000000D+00  0.000000D+00  0.000000D+00
     23  0.000000D+00  0.000000D+00  0.000000D+00  0.000000D+00  0.000000D+00
     24  0.000000D+00  0.000000D+00  0.000000D+00  0.000000D+00  0.000000D+00
     25  0.000000D+00  0.000000D+00  0.000000D+00  0.000000D+00  0.000000D+00
     26  0.000000D+00  0.000000D+00  0.000000D+00  0.000000D+00  0.000000D+00
     27  0.000000D+00  0.000000D+00  0.000000D+00  0.000000D+00  0.000000D+00
     28  0.000000D+00  0.000000D+00  0.000000D+00  0.000000D+00  0.000000D+00
     29  0.000000D+00  0.000000D+00  0.000000D+00  0.000000D+00  0.000000D+00
     30  0.000000D+00  0.000000D+00  0.000000D+00  0.000000D+00  0.000000D+00
               16            17            18            19            20 
     16  0.377172D-01
     17  0.000000D+00  0.377172D-01
     18  0.000000D+00  0.000000D+00  0.377172D-01
     19  0.000000D+00  0.000000D+00  0.000000D+00  0.171764D-01
     20  0.000000D+00  0.000000D+00  0.000000D+00  0.000000D+00  0.171764D-01
     21  0.181274D-01  0.000000D+00  0.000000D+00  0.000000D+00  0.000000D+00
     22  0.000000D+00  0.181274D-01  0.000000D+00  0.000000D+00  0.000000D+00
     23  0.000000D+00  0.000000D+00  0.181274D-01  0.000000D+00  0.000000D+00
     24  0.000000D+00  0.000000D+00  0.000000D+00  0.000000D+00  0.000000D+00
     25  0.000000D+00  0.000000D+00  0.000000D+00  0.000000D+00  0.000000D+00
     26  0.000000D+00  0.000000D+00  0.000000D+00  0.000000D+00  0.000000D+00
     27  0.000000D+00  0.000000D+00  0.000000D+00  0.000000D+00  0.000000D+00
     28  0.000000D+00  0.000000D+00  0.000000D+00  0.000000D+00  0.000000D+00
     29  0.000000D+00  0.000000D+00  0.000000D+00  0.000000D+00  0.000000D+00
     30  0.000000D+00  0.000000D+00  0.000000D+00  0.000000D+00  0.000000D+00
               21            22            23            24            25 
     21  0.171764D-01
     22  0.000000D+00  0.171764D-01
     23  0.000000D+00  0.000000D+00  0.171764D-01
     24  0.000000D+00  0.000000D+00  0.000000D+00  0.267478D-01
     25  0.000000D+00  0.000000D+00  0.000000D+00  0.000000D+00  0.267478D-01
     26  0.000000D+00  0.000000D+00  0.000000D+00  0.000000D+00  0.000000D+00
     27  0.000000D+00  0.000000D+00  0.000000D+00  0.000000D+00  0.000000D+00
     28  0.000000D+00  0.000000D+00  0.000000D+00  0.000000D+00  0.000000D+00
     29  0.000000D+00  0.000000D+00  0.000000D+00  0.000000D+00  0.000000D+00
     30  0.000000D+00  0.000000D+00  0.000000D+00  0.000000D+00  0.000000D+00
               26            27            28            29            30 
     26  0.267478D-01
     27  0.000000D+00  0.267478D-01
     28  0.000000D+00  0.000000D+00  0.267478D-01
     29  0.000000D+00  0.000000D+00  0.000000D+00  0.267478D-01
     30  0.000000D+00  0.000000D+00  0.000000D+00  0.000000D+00  0.267478D-01
 Entering OneElI...
 OneElI was handed  6710884817 working-precision words.
 Calculate potential energy integrals
    NBasis =  30  MinDer = 0  MaxDer = 0
 Requested accuracy = 0.1000D-12
 ShPair: Thresh= 1.00D-13 NBox=     0 BxSize= 0.00D+00 RnKept= 0.00D+00
         NSMCal=                   55 NSMKep=                  55
 PrSmSu:  IncTry=   512 NBBP=            165 NTPThr=   100 NPartT=    1 Incr=           1 LDynOK=F GPUOK=F.
 PrsmSu:  NPrtUS=   1 ThrOK=F IAlg=2 LenDen=           0 ISkipM=0 DoSpLW=F IThBeg=    0 IThEnd=    0.
 Prism:   IPart=     0 DynPar=F LinDyn=F Incr=           1.
 PRISM was handed  6710880110 working-precision words and    55 shell-pairs
 IPart=  0 NShTot=         165 NBatch=          55 AvBLen=         3.0
 PrsmSu-ThDecC:  IPartSL=    0    0 NPrtUSL=    1    1 IThBeg=    0 IThEnd=    0 CPU=   -1 GPU=   -1 NThAct=   -1.
 PrSmSu:  NxtVal=              2.
 ***** NEO Potential Energy ***** 
                1             2             3             4             5 
      1  0.463849D+01
      2  0.444546D+01  0.463849D+01
      3  0.387308D+01  0.440987D+01  0.463849D+01
      4  0.303134D+01  0.373641D+01  0.436070D+01  0.463849D+01
      5  0.000000D+00  0.000000D+00  0.000000D+00  0.000000D+00  0.462968D+01
      6  0.000000D+00  0.000000D+00  0.000000D+00  0.000000D+00  0.000000D+00
      7  0.170925D+00  0.215668D+00  0.237200D+00  0.222654D+00  0.000000D+00
      8  0.000000D+00  0.000000D+00  0.000000D+00  0.000000D+00  0.433299D+01
      9  0.000000D+00  0.000000D+00  0.000000D+00  0.000000D+00  0.000000D+00
     10  0.150662D+00  0.217603D+00  0.276910D+00  0.298769D+00  0.000000D+00
     11  0.000000D+00  0.000000D+00  0.000000D+00  0.000000D+00  0.318473D+01
     12  0.000000D+00  0.000000D+00  0.000000D+00  0.000000D+00  0.000000D+00
     13  0.102984D+00  0.176175D+00  0.276143D+00  0.374979D+00  0.000000D+00
     14  0.115307D-01  0.197307D-01  0.283027D-01  0.328821D-01  0.000000D+00
     15  0.000000D+00  0.000000D+00  0.000000D+00  0.000000D+00  0.189692D+00
     16  0.000000D+00  0.000000D+00  0.000000D+00  0.000000D+00  0.000000D+00
     17  0.000000D+00  0.000000D+00  0.000000D+00  0.000000D+00  0.000000D+00
     18  0.000000D+00  0.000000D+00  0.000000D+00  0.000000D+00  0.000000D+00
     19  0.698020D-02  0.161642D-01  0.329943D-01  0.553045D-01  0.000000D+00
     20  0.000000D+00  0.000000D+00  0.000000D+00  0.000000D+00  0.130794D+00
     21  0.000000D+00  0.000000D+00  0.000000D+00  0.000000D+00  0.000000D+00
     22  0.000000D+00  0.000000D+00  0.000000D+00  0.000000D+00  0.000000D+00
     23  0.000000D+00  0.000000D+00  0.000000D+00  0.000000D+00  0.000000D+00
     24  0.708554D-03  0.211856D-02  0.531840D-02  0.103492D-01  0.000000D+00
     25  0.000000D+00  0.000000D+00  0.000000D+00  0.000000D+00  0.119791D-01
     26  0.000000D+00  0.000000D+00  0.000000D+00  0.000000D+00  0.000000D+00
     27  0.000000D+00  0.000000D+00  0.000000D+00  0.000000D+00  0.000000D+00
     28  0.000000D+00  0.000000D+00  0.000000D+00  0.000000D+00  0.000000D+00
     29  0.000000D+00  0.000000D+00  0.000000D+00  0.000000D+00  0.000000D+00
     30  0.000000D+00  0.000000D+00  0.000000D+00  0.000000D+00  0.000000D+00
                6             7             8             9            10 
      6  0.462968D+01
      7  0.000000D+00  0.465610D+01
      8  0.000000D+00  0.000000D+00  0.462452D+01
      9  0.433299D+01  0.000000D+00  0.000000D+00  0.462452D+01
     10  0.000000D+00  0.436333D+01  0.000000D+00  0.000000D+00  0.466641D+01
     11  0.000000D+00  0.000000D+00  0.404301D+01  0.000000D+00  0.000000D+00
     12  0.318473D+01  0.000000D+00  0.000000D+00  0.404301D+01  0.000000D+00
     13  0.000000D+00  0.321216D+01  0.000000D+00  0.000000D+00  0.409133D+01
     14  0.000000D+00  0.222963D+00  0.000000D+00  0.000000D+00  0.274053D+00
     15  0.000000D+00  0.000000D+00  0.232129D+00  0.000000D+00  0.000000D+00
     16  0.189692D+00  0.000000D+00  0.000000D+00  0.232129D+00  0.000000D+00
     17  0.000000D+00  0.000000D+00  0.000000D+00  0.000000D+00  0.000000D+00
     18  0.000000D+00  0.000000D+00  0.000000D+00  0.000000D+00  0.000000D+00
     19  0.000000D+00  0.154646D+00  0.000000D+00  0.000000D+00  0.258263D+00
     20  0.000000D+00  0.000000D+00  0.216567D+00  0.000000D+00  0.000000D+00
     21  0.130794D+00  0.000000D+00  0.000000D+00  0.216567D+00  0.000000D+00
     22  0.000000D+00  0.000000D+00  0.000000D+00  0.000000D+00  0.000000D+00
     23  0.000000D+00  0.000000D+00  0.000000D+00  0.000000D+00  0.000000D+00
     24  0.000000D+00  0.152378D-01  0.000000D+00  0.000000D+00  0.317661D-01
     25  0.000000D+00  0.000000D+00  0.246578D-01  0.000000D+00  0.000000D+00
     26  0.119791D-01  0.000000D+00  0.000000D+00  0.246578D-01  0.000000D+00
     27  0.000000D+00  0.000000D+00  0.000000D+00  0.000000D+00  0.000000D+00
     28  0.000000D+00  0.000000D+00  0.000000D+00  0.000000D+00  0.000000D+00
     29  0.000000D+00  0.000000D+00  0.000000D+00  0.000000D+00  0.000000D+00
     30  0.000000D+00  0.000000D+00  0.000000D+00  0.000000D+00  0.000000D+00
               11            12            13            14            15 
     11  0.461149D+01
     12  0.000000D+00  0.461149D+01
     13  0.000000D+00  0.000000D+00  0.469247D+01
     14  0.000000D+00  0.000000D+00  0.270174D+00  0.465976D+01
     15  0.227535D+00  0.000000D+00  0.000000D+00  0.000000D+00  0.464851D+01
     16  0.000000D+00  0.227535D+00  0.000000D+00  0.000000D+00  0.000000D+00
     17  0.000000D+00  0.000000D+00  0.000000D+00  0.000000D+00  0.000000D+00
     18  0.000000D+00  0.000000D+00  0.000000D+00  0.000000D+00  0.000000D+00
     19  0.000000D+00  0.000000D+00  0.396584D+00  0.358496D+01  0.000000D+00
     20  0.328028D+00  0.000000D+00  0.000000D+00  0.000000D+00  0.357274D+01
     21  0.000000D+00  0.328028D+00  0.000000D+00  0.000000D+00  0.000000D+00
     22  0.000000D+00  0.000000D+00  0.000000D+00  0.000000D+00  0.000000D+00
     23  0.000000D+00  0.000000D+00  0.000000D+00  0.000000D+00  0.000000D+00
     24  0.000000D+00  0.000000D+00  0.606455D-01  0.234545D+00  0.000000D+00
     25  0.461752D-01  0.000000D+00  0.000000D+00  0.000000D+00  0.219074D+00
     26  0.000000D+00  0.461752D-01  0.000000D+00  0.000000D+00  0.000000D+00
     27  0.000000D+00  0.000000D+00  0.000000D+00  0.000000D+00  0.000000D+00
     28  0.000000D+00  0.000000D+00  0.000000D+00  0.000000D+00  0.000000D+00
     29  0.000000D+00  0.000000D+00  0.000000D+00  0.000000D+00  0.000000D+00
     30  0.000000D+00  0.000000D+00  0.000000D+00  0.000000D+00  0.000000D+00
               16            17            18            19            20 
     16  0.464851D+01
     17  0.000000D+00  0.461783D+01
     18  0.000000D+00  0.000000D+00  0.461783D+01
     19  0.000000D+00  0.000000D+00  0.000000D+00  0.468658D+01
     20  0.000000D+00  0.000000D+00  0.000000D+00  0.000000D+00  0.465957D+01
     21  0.357274D+01  0.000000D+00  0.000000D+00  0.000000D+00  0.000000D+00
     22  0.000000D+00  0.354053D+01  0.000000D+00  0.000000D+00  0.000000D+00
     23  0.000000D+00  0.000000D+00  0.354053D+01  0.000000D+00  0.000000D+00
     24  0.000000D+00  0.000000D+00  0.000000D+00  0.417592D+00  0.000000D+00
     25  0.000000D+00  0.000000D+00  0.000000D+00  0.000000D+00  0.387755D+00
     26  0.219074D+00  0.000000D+00  0.000000D+00  0.000000D+00  0.000000D+00
     27  0.000000D+00  0.169001D+00  0.000000D+00  0.000000D+00  0.000000D+00
     28  0.000000D+00  0.000000D+00  0.169001D+00  0.000000D+00  0.000000D+00
     29  0.000000D+00  0.000000D+00  0.000000D+00  0.000000D+00  0.000000D+00
     30  0.000000D+00  0.000000D+00  0.000000D+00  0.000000D+00  0.000000D+00
               21            22            23            24            25 
     21  0.465957D+01
     22  0.000000D+00  0.459335D+01
     23  0.000000D+00  0.000000D+00  0.459335D+01
     24  0.000000D+00  0.000000D+00  0.000000D+00  0.468551D+01
     25  0.000000D+00  0.000000D+00  0.000000D+00  0.000000D+00  0.467251D+01
     26  0.387755D+00  0.000000D+00  0.000000D+00  0.000000D+00  0.000000D+00
     27  0.000000D+00  0.295307D+00  0.000000D+00  0.000000D+00  0.000000D+00
     28  0.000000D+00  0.000000D+00  0.295307D+00  0.000000D+00  0.000000D+00
     29  0.000000D+00  0.000000D+00  0.000000D+00  0.000000D+00  0.000000D+00
     30  0.000000D+00  0.000000D+00  0.000000D+00  0.000000D+00  0.000000D+00
               26            27            28            29            30 
     26  0.467251D+01
     27  0.000000D+00  0.463652D+01
     28  0.000000D+00  0.000000D+00  0.463652D+01
     29  0.000000D+00  0.000000D+00  0.000000D+00  0.458292D+01
     30  0.000000D+00  0.000000D+00  0.000000D+00  0.000000D+00  0.458292D+01
 Entering OneElI...
 OneElI was handed  6710884817 working-precision words.
 Calculate overlap and kinetic energy integrals
    NBasis =  33  MinDer = 0  MaxDer = 0
 Requested accuracy = 0.1000D-12
 ShPair: Thresh= 1.00D-13 NBox=     0 BxSize= 0.00D+00 RnKept= 4.19D+00
         NSMCal=                  120 NSMKep=                 120
 PrmmSu-InSpLW:  IPartL=    0 NPrtUS=    5 NPrtUL=    1 DoSpLW=F IThBeg=    0 IThEnd=    4 NThAct=    5.
 PrSmSu:  IncTry=   512 NBBP=            120 NTPThr=   100 NPartT=    5 Incr=           1 LDynOK=F GPUOK=F.
 PrsmSu:  NPrtUS=   5 ThrOK=T IAlg=1 LenDen=           0 ISkipM=0 DoSpLW=F IThBeg=    0 IThEnd=    4.
 Prism:   IPart=     0 DynPar=F LinDyn=F Incr=           1.
 PRISM was handed  1342164588 working-precision words and   120 shell-pairs
 PRISM was handed  1342164588 working-precision words and   120 shell-pairs
 PRISM was handed  1342164588 working-precision words and   120 shell-pairs
 PRISM was handed  1342164588 working-precision words and   120 shell-pairs
 PRISM was handed  1342164588 working-precision words and   120 shell-pairs
 IPart=  0 NShTot=          42 NBatch=          28 AvBLen=         1.5
 PrsmSu-ThDecC:  IPartSL=    0    0 NPrtUSL=    5    1 IThBeg=    0 IThEnd=    4 CPU=   -1 GPU=   -1 NThAct=    5.
 IPart=  4 NShTot=          14 NBatch=          12 AvBLen=         1.2
 PrsmSu-ThDecC:  IPartSL=    4    0 NPrtUSL=    5    1 IThBeg=    0 IThEnd=    4 CPU=   -1 GPU=   -1 NThAct=    4.
 IPart=  1 NShTot=          26 NBatch=          19 AvBLen=         1.4
 PrsmSu-ThDecC:  IPartSL=    1    0 NPrtUSL=    5    1 IThBeg=    0 IThEnd=    4 CPU=   -1 GPU=   -1 NThAct=    3.
 IPart=  3 NShTot=          17 NBatch=          13 AvBLen=         1.3
 PrsmSu-ThDecC:  IPartSL=    3    0 NPrtUSL=    5    1 IThBeg=    0 IThEnd=    4 CPU=   -1 GPU=   -1 NThAct=    2.
 IPart=  2 NShTot=          21 NBatch=          16 AvBLen=         1.3
 PrsmSu-ThDecC:  IPartSL=    2    0 NPrtUSL=    5    1 IThBeg=    0 IThEnd=    4 CPU=   -1 GPU=   -1 NThAct=    1.
 PrSmSu:  NxtVal=              6.
 *** Overlap *** 
                1             2             3             4             5 
      1  0.100000D+01
      2  0.206150D+00  0.100000D+01
      3  0.179607D+00  0.800420D+00  0.100000D+01
      4  0.000000D+00  0.000000D+00  0.000000D+00  0.100000D+01
      5  0.000000D+00  0.000000D+00  0.000000D+00  0.000000D+00  0.100000D+01
      6  0.000000D+00  0.000000D+00  0.000000D+00  0.000000D+00  0.000000D+00
      7  0.000000D+00  0.000000D+00  0.000000D+00  0.530759D+00  0.000000D+00
      8  0.000000D+00  0.000000D+00  0.000000D+00  0.000000D+00  0.530759D+00
      9  0.000000D+00  0.000000D+00  0.000000D+00  0.000000D+00  0.000000D+00
     10  0.000000D+00  0.000000D+00  0.000000D+00  0.000000D+00  0.000000D+00
     11  0.000000D+00  0.000000D+00  0.000000D+00  0.000000D+00  0.000000D+00
     12  0.000000D+00  0.000000D+00  0.000000D+00  0.000000D+00  0.000000D+00
     13  0.000000D+00  0.000000D+00  0.000000D+00  0.000000D+00  0.000000D+00
     14  0.000000D+00  0.000000D+00  0.000000D+00  0.000000D+00  0.000000D+00
     15  0.558978D-01  0.352037D+00  0.467822D+00  0.000000D+00  0.000000D+00
     16  0.915244D-01  0.480233D+00  0.743645D+00  0.000000D+00  0.000000D+00
     17  0.000000D+00  0.000000D+00  0.000000D+00  0.233928D+00  0.000000D+00
     18  0.000000D+00  0.000000D+00  0.000000D+00  0.000000D+00  0.233928D+00
     19  0.107663D+00  0.413554D+00  0.244844D+00  0.000000D+00  0.000000D+00
     20  0.440591D-04  0.367548D-01  0.688135D-01  0.000000D+00  0.000000D+00
     21  0.261181D-01  0.258473D+00  0.372692D+00  0.000000D+00  0.000000D+00
     22  0.832916D-01  0.435661D+00  0.631228D+00  0.000000D+00  0.000000D+00
     23  0.000000D+00  0.000000D+00  0.000000D+00  0.145987D+00  0.000000D+00
     24  0.000000D+00  0.000000D+00  0.000000D+00  0.000000D+00  0.145987D+00
     25 -0.511759D-01 -0.292846D+00 -0.185964D+00  0.000000D+00  0.000000D+00
     26  0.000000D+00  0.000000D+00  0.000000D+00  0.318837D+00  0.000000D+00
     27  0.000000D+00  0.000000D+00  0.000000D+00  0.000000D+00  0.318837D+00
     28 -0.161890D+00 -0.612796D+00 -0.544423D+00  0.000000D+00  0.000000D+00
     29  0.122428D+00  0.280568D+00  0.803806D-01  0.000000D+00  0.000000D+00
     30  0.000000D+00  0.000000D+00  0.000000D+00 -0.290190D+00  0.000000D+00
     31  0.000000D+00  0.000000D+00  0.000000D+00  0.000000D+00 -0.290190D+00
     32  0.000000D+00  0.000000D+00  0.000000D+00  0.000000D+00  0.000000D+00
     33  0.000000D+00  0.000000D+00  0.000000D+00  0.000000D+00  0.000000D+00
                6             7             8             9            10 
      6  0.100000D+01
      7  0.000000D+00  0.100000D+01
      8  0.000000D+00  0.000000D+00  0.100000D+01
      9  0.530759D+00  0.000000D+00  0.000000D+00  0.100000D+01
     10  0.000000D+00  0.000000D+00  0.000000D+00  0.000000D+00  0.100000D+01
     11  0.000000D+00  0.000000D+00  0.000000D+00  0.000000D+00  0.000000D+00
     12  0.000000D+00  0.000000D+00  0.000000D+00  0.000000D+00  0.000000D+00
     13  0.000000D+00  0.000000D+00  0.000000D+00  0.000000D+00  0.000000D+00
     14  0.000000D+00  0.000000D+00  0.000000D+00  0.000000D+00  0.000000D+00
     15 -0.404577D+00  0.000000D+00  0.000000D+00 -0.563589D+00  0.407606D+00
     16 -0.208629D+00  0.000000D+00  0.000000D+00 -0.527796D+00  0.770272D-01
     17  0.000000D+00  0.297348D+00  0.000000D+00  0.000000D+00  0.000000D+00
     18  0.000000D+00  0.000000D+00  0.297348D+00  0.000000D+00  0.000000D+00
     19 -0.411460D+00  0.000000D+00  0.000000D+00 -0.782048D-02  0.149879D+00
     20  0.705909D-01  0.000000D+00  0.000000D+00  0.113172D+00  0.154567D+00
     21  0.361630D+00  0.000000D+00  0.000000D+00  0.518165D+00  0.435715D+00
     22  0.327726D+00  0.000000D+00  0.000000D+00  0.639982D+00  0.205215D+00
     23  0.000000D+00  0.211118D+00  0.000000D+00  0.000000D+00  0.000000D+00
     24  0.000000D+00  0.000000D+00  0.211118D+00  0.000000D+00  0.000000D+00
     25 -0.348102D+00  0.000000D+00  0.000000D+00 -0.448246D-01 -0.244924D+00
     26  0.000000D+00  0.630188D+00  0.000000D+00  0.000000D+00  0.000000D+00
     27  0.000000D+00  0.000000D+00  0.630188D+00  0.000000D+00  0.000000D+00
     28 -0.161884D+00  0.000000D+00  0.000000D+00  0.100375D+00  0.104065D+00
     29  0.244052D+00  0.000000D+00  0.000000D+00 -0.698690D-01  0.120111D-01
     30  0.000000D+00 -0.151527D+00  0.000000D+00  0.000000D+00  0.000000D+00
     31  0.000000D+00  0.000000D+00 -0.151527D+00  0.000000D+00  0.000000D+00
     32  0.000000D+00  0.000000D+00  0.000000D+00  0.000000D+00  0.000000D+00
     33  0.000000D+00  0.000000D+00  0.000000D+00  0.000000D+00  0.000000D+00
               11            12            13            14            15 
     11  0.100000D+01
     12  0.000000D+00  0.100000D+01
     13  0.000000D+00  0.000000D+00  0.100000D+01
     14  0.000000D+00  0.000000D+00  0.000000D+00  0.100000D+01
     15  0.000000D+00  0.000000D+00  0.000000D+00  0.000000D+00  0.100000D+01
     16  0.000000D+00  0.000000D+00  0.000000D+00  0.000000D+00  0.684860D+00
     17 -0.463267D+00  0.000000D+00  0.000000D+00  0.000000D+00  0.000000D+00
     18  0.000000D+00 -0.463267D+00  0.000000D+00  0.000000D+00  0.000000D+00
     19  0.000000D+00  0.000000D+00  0.000000D+00  0.000000D+00  0.000000D+00
     20  0.000000D+00  0.000000D+00  0.000000D+00  0.000000D+00  0.167664D-03
     21  0.000000D+00  0.000000D+00  0.000000D+00  0.000000D+00  0.635756D-02
     22  0.000000D+00  0.000000D+00  0.000000D+00  0.000000D+00  0.577164D-01
     23  0.344146D+00  0.000000D+00  0.000000D+00  0.000000D+00  0.000000D+00
     24  0.000000D+00  0.344146D+00  0.000000D+00  0.000000D+00  0.000000D+00
     25  0.000000D+00  0.000000D+00  0.000000D+00  0.000000D+00 -0.106565D-01
     26  0.339016D+00  0.000000D+00  0.000000D+00  0.000000D+00  0.000000D+00
     27  0.000000D+00  0.339016D+00  0.000000D+00  0.000000D+00  0.000000D+00
     28  0.000000D+00  0.000000D+00  0.000000D+00  0.000000D+00 -0.161576D+00
     29  0.000000D+00  0.000000D+00  0.000000D+00  0.000000D+00  0.201255D-01
     30 -0.416516D+00  0.000000D+00  0.000000D+00  0.000000D+00  0.000000D+00
     31  0.000000D+00 -0.416516D+00  0.000000D+00  0.000000D+00  0.000000D+00
     32  0.000000D+00  0.000000D+00  0.199623D+00  0.000000D+00  0.000000D+00
     33  0.000000D+00  0.000000D+00  0.000000D+00  0.199623D+00  0.000000D+00
               16            17            18            19            20 
     16  0.100000D+01
     17  0.000000D+00  0.100000D+01
     18  0.000000D+00  0.000000D+00  0.100000D+01
     19  0.000000D+00  0.000000D+00  0.000000D+00  0.100000D+01
     20  0.144598D-01  0.000000D+00  0.000000D+00  0.318825D-04  0.100000D+01
     21  0.965527D-01  0.000000D+00  0.000000D+00  0.618794D-02  0.216415D+00
     22  0.233044D+00  0.000000D+00  0.000000D+00  0.649314D-01  0.181728D+00
     23  0.000000D+00  0.957456D-03  0.000000D+00  0.000000D+00  0.000000D+00
     24  0.000000D+00  0.000000D+00  0.957456D-03  0.000000D+00  0.000000D+00
     25 -0.712320D-01  0.000000D+00  0.000000D+00 -0.118670D-01  0.000000D+00
     26  0.000000D+00  0.342329D-01  0.000000D+00  0.000000D+00  0.000000D+00
     27  0.000000D+00  0.000000D+00  0.342329D-01  0.000000D+00  0.000000D+00
     28 -0.333624D+00  0.000000D+00  0.000000D+00 -0.167590D+00  0.000000D+00
     29  0.478526D-01  0.000000D+00  0.000000D+00  0.276083D-01  0.000000D+00
     30  0.000000D+00 -0.415842D-02  0.000000D+00  0.000000D+00  0.000000D+00
     31  0.000000D+00  0.000000D+00 -0.415842D-02  0.000000D+00  0.000000D+00
     32  0.000000D+00  0.000000D+00  0.000000D+00  0.000000D+00  0.000000D+00
     33  0.000000D+00  0.000000D+00  0.000000D+00  0.000000D+00  0.000000D+00
               21            22            23            24            25 
     21  0.100000D+01
     22  0.795233D+00  0.100000D+01
     23  0.000000D+00  0.000000D+00  0.100000D+01
     24  0.000000D+00  0.000000D+00  0.000000D+00  0.100000D+01
     25  0.000000D+00  0.000000D+00  0.000000D+00  0.000000D+00  0.100000D+01
     26  0.000000D+00  0.000000D+00  0.522157D+00  0.000000D+00  0.000000D+00
     27  0.000000D+00  0.000000D+00  0.000000D+00  0.522157D+00  0.000000D+00
     28  0.000000D+00  0.000000D+00  0.000000D+00  0.000000D+00  0.522157D+00
     29  0.000000D+00  0.000000D+00  0.000000D+00  0.000000D+00  0.000000D+00
     30  0.000000D+00  0.000000D+00  0.000000D+00  0.000000D+00  0.000000D+00
     31  0.000000D+00  0.000000D+00  0.000000D+00  0.000000D+00  0.000000D+00
     32  0.000000D+00  0.000000D+00  0.000000D+00  0.000000D+00  0.000000D+00
     33  0.000000D+00  0.000000D+00  0.000000D+00  0.000000D+00  0.000000D+00
               26            27            28            29            30 
     26  0.100000D+01
     27  0.000000D+00  0.100000D+01
     28  0.000000D+00  0.000000D+00  0.100000D+01
     29  0.000000D+00  0.000000D+00  0.000000D+00  0.100000D+01
     30  0.000000D+00  0.000000D+00  0.000000D+00  0.000000D+00  0.100000D+01
     31  0.000000D+00  0.000000D+00  0.000000D+00  0.000000D+00  0.000000D+00
     32  0.000000D+00  0.000000D+00  0.000000D+00  0.000000D+00  0.000000D+00
     33  0.000000D+00  0.000000D+00  0.000000D+00  0.000000D+00  0.000000D+00
               31            32            33 
     31  0.100000D+01
     32  0.000000D+00  0.100000D+01
     33  0.000000D+00  0.000000D+00  0.100000D+01
 *** Kinetic Energy *** 
                1             2             3             4             5 
      1  0.161698D+02
      2 -0.148953D+01  0.972956D+00
      3  0.829743D-01  0.288252D+00  0.239400D+00
      4  0.000000D+00  0.000000D+00  0.000000D+00  0.215838D+01
      5  0.000000D+00  0.000000D+00  0.000000D+00  0.000000D+00  0.215838D+01
      6  0.000000D+00  0.000000D+00  0.000000D+00  0.000000D+00  0.000000D+00
      7  0.000000D+00  0.000000D+00  0.000000D+00  0.321818D+00  0.000000D+00
      8  0.000000D+00  0.000000D+00  0.000000D+00  0.000000D+00  0.321818D+00
      9  0.000000D+00  0.000000D+00  0.000000D+00  0.000000D+00  0.000000D+00
     10  0.000000D+00  0.000000D+00  0.000000D+00  0.000000D+00  0.000000D+00
     11  0.000000D+00  0.000000D+00  0.000000D+00  0.000000D+00  0.000000D+00
     12  0.000000D+00  0.000000D+00  0.000000D+00  0.000000D+00  0.000000D+00
     13  0.000000D+00  0.000000D+00  0.000000D+00  0.000000D+00  0.000000D+00
     14  0.000000D+00  0.000000D+00  0.000000D+00  0.000000D+00  0.000000D+00
     15 -0.137127D-01  0.812319D-01  0.113353D+00  0.000000D+00  0.000000D+00
     16  0.220412D-01  0.103377D+00  0.125185D+00  0.000000D+00  0.000000D+00
     17  0.000000D+00  0.000000D+00  0.000000D+00  0.166955D+00  0.000000D+00
     18  0.000000D+00  0.000000D+00  0.000000D+00  0.000000D+00  0.166955D+00
     19 -0.952019D-02  0.341403D+00  0.125924D+00  0.000000D+00  0.000000D+00
     20 -0.965135D-03 -0.261915D-01  0.164742D-01  0.000000D+00  0.000000D+00
     21 -0.490301D-01  0.325587D-01  0.863597D-01  0.000000D+00  0.000000D+00
     22  0.176488D-01  0.105028D+00  0.125114D+00  0.000000D+00  0.000000D+00
     23  0.000000D+00  0.000000D+00  0.000000D+00  0.742930D-01  0.000000D+00
     24  0.000000D+00  0.000000D+00  0.000000D+00  0.000000D+00  0.742930D-01
     25  0.528383D-01 -0.205247D+00 -0.935622D-01  0.000000D+00  0.000000D+00
     26  0.000000D+00  0.000000D+00  0.000000D+00  0.178286D+00  0.000000D+00
     27  0.000000D+00  0.000000D+00  0.000000D+00  0.000000D+00  0.178286D+00
     28 -0.102593D+00 -0.331103D+00 -0.207578D+00  0.000000D+00  0.000000D+00
     29  0.380970D-01  0.389011D+00  0.616707D-01  0.000000D+00  0.000000D+00
     30  0.000000D+00  0.000000D+00  0.000000D+00 -0.353948D+00  0.000000D+00
     31  0.000000D+00  0.000000D+00  0.000000D+00  0.000000D+00 -0.353948D+00
     32  0.000000D+00  0.000000D+00  0.000000D+00  0.000000D+00  0.000000D+00
     33  0.000000D+00  0.000000D+00  0.000000D+00  0.000000D+00  0.000000D+00
                6             7             8             9            10 
      6  0.215838D+01
      7  0.000000D+00  0.379250D+00
      8  0.000000D+00  0.000000D+00  0.379250D+00
      9  0.321818D+00  0.000000D+00  0.000000D+00  0.379250D+00
     10  0.000000D+00  0.000000D+00  0.000000D+00  0.000000D+00  0.192500D+01
     11  0.000000D+00  0.000000D+00  0.000000D+00  0.000000D+00  0.000000D+00
     12  0.000000D+00  0.000000D+00  0.000000D+00  0.000000D+00  0.000000D+00
     13  0.000000D+00  0.000000D+00  0.000000D+00  0.000000D+00  0.000000D+00
     14  0.000000D+00  0.000000D+00  0.000000D+00  0.000000D+00  0.000000D+00
     15 -0.276806D+00  0.000000D+00  0.000000D+00 -0.265864D+00  0.527112D+00
     16 -0.880994D-01  0.000000D+00  0.000000D+00 -0.158713D+00  0.475590D-01
     17  0.000000D+00  0.148299D+00  0.000000D+00  0.000000D+00  0.000000D+00
     18  0.000000D+00  0.000000D+00  0.148299D+00  0.000000D+00  0.000000D+00
     19 -0.729264D+00  0.000000D+00  0.000000D+00 -0.805040D-01  0.637202D+00
     20 -0.430132D-03  0.000000D+00  0.000000D+00  0.604606D-01  0.175288D+00
     21  0.218434D+00  0.000000D+00  0.000000D+00  0.247545D+00  0.560983D+00
     22  0.185393D+00  0.000000D+00  0.000000D+00  0.240537D+00  0.180164D+00
     23  0.000000D+00  0.103193D+00  0.000000D+00  0.000000D+00  0.000000D+00
     24  0.000000D+00  0.000000D+00  0.103193D+00  0.000000D+00  0.000000D+00
     25 -0.504738D+00  0.000000D+00  0.000000D+00 -0.882246D-01 -0.761318D+00
     26  0.000000D+00  0.234687D+00  0.000000D+00  0.000000D+00  0.000000D+00
     27  0.000000D+00  0.000000D+00  0.234687D+00  0.000000D+00  0.000000D+00
     28 -0.246763D+00  0.000000D+00  0.000000D+00 -0.574947D-01  0.135050D-03
     29  0.729035D+00  0.000000D+00  0.000000D+00 -0.249423D-01  0.308857D+00
     30  0.000000D+00 -0.112418D+00  0.000000D+00  0.000000D+00  0.000000D+00
     31  0.000000D+00  0.000000D+00 -0.112418D+00  0.000000D+00  0.000000D+00
     32  0.000000D+00  0.000000D+00  0.000000D+00  0.000000D+00  0.000000D+00
     33  0.000000D+00  0.000000D+00  0.000000D+00  0.000000D+00  0.000000D+00
               11            12            13            14            15 
     11  0.192500D+01
     12  0.000000D+00  0.192500D+01
     13  0.000000D+00  0.000000D+00  0.192500D+01
     14  0.000000D+00  0.000000D+00  0.000000D+00  0.192500D+01
     15  0.000000D+00  0.000000D+00  0.000000D+00  0.000000D+00  0.969457D+00
     16  0.000000D+00  0.000000D+00  0.000000D+00  0.000000D+00  0.201234D+00
     17 -0.643998D+00  0.000000D+00  0.000000D+00  0.000000D+00  0.000000D+00
     18  0.000000D+00 -0.643998D+00  0.000000D+00  0.000000D+00  0.000000D+00
     19  0.000000D+00  0.000000D+00  0.000000D+00  0.000000D+00  0.000000D+00
     20  0.000000D+00  0.000000D+00  0.000000D+00  0.000000D+00 -0.787067D-03
     21  0.000000D+00  0.000000D+00  0.000000D+00  0.000000D+00 -0.119715D-01
     22  0.000000D+00  0.000000D+00  0.000000D+00  0.000000D+00 -0.209391D-01
     23  0.438986D+00  0.000000D+00  0.000000D+00  0.000000D+00  0.000000D+00
     24  0.000000D+00  0.438986D+00  0.000000D+00  0.000000D+00  0.000000D+00
     25  0.000000D+00  0.000000D+00  0.000000D+00  0.000000D+00  0.161359D-01
     26  0.293256D+00  0.000000D+00  0.000000D+00  0.000000D+00  0.000000D+00
     27  0.000000D+00  0.293256D+00  0.000000D+00  0.000000D+00  0.000000D+00
     28  0.000000D+00  0.000000D+00  0.000000D+00  0.000000D+00  0.785110D-02
     29  0.000000D+00  0.000000D+00  0.000000D+00  0.000000D+00 -0.189043D-01
     30 -0.940877D+00  0.000000D+00  0.000000D+00  0.000000D+00  0.000000D+00
     31  0.000000D+00 -0.940877D+00  0.000000D+00  0.000000D+00  0.000000D+00
     32  0.000000D+00  0.000000D+00  0.256798D+00  0.000000D+00  0.000000D+00
     33  0.000000D+00  0.000000D+00  0.000000D+00  0.256798D+00  0.000000D+00
               16            17            18            19            20 
     16  0.183000D+00
     17  0.000000D+00  0.181750D+01
     18  0.000000D+00  0.000000D+00  0.181750D+01
     19  0.000000D+00  0.000000D+00  0.000000D+00  0.181750D+01
     20 -0.206582D-02  0.000000D+00  0.000000D+00 -0.346229D-03  0.223182D+02
     21 -0.657690D-02  0.000000D+00  0.000000D+00 -0.179758D-01 -0.206631D+01
     22  0.414471D-02  0.000000D+00  0.000000D+00 -0.114325D-01  0.118179D+00
     23  0.000000D+00 -0.307742D-02  0.000000D+00  0.000000D+00  0.000000D+00
     24  0.000000D+00  0.000000D+00 -0.307742D-02  0.000000D+00  0.000000D+00
     25 -0.950803D-02  0.000000D+00  0.000000D+00  0.286119D-01  0.000000D+00
     26  0.000000D+00 -0.515079D-02  0.000000D+00  0.000000D+00  0.000000D+00
     27  0.000000D+00  0.000000D+00 -0.515079D-02  0.000000D+00  0.000000D+00
     28 -0.588391D-01  0.000000D+00  0.000000D+00 -0.425988D-01  0.000000D+00
     29  0.166357D-01  0.000000D+00  0.000000D+00 -0.440910D-01  0.000000D+00
     30  0.000000D+00  0.103969D-01  0.000000D+00  0.000000D+00  0.000000D+00
     31  0.000000D+00  0.000000D+00  0.103969D-01  0.000000D+00  0.000000D+00
     32  0.000000D+00  0.000000D+00  0.000000D+00  0.000000D+00  0.000000D+00
     33  0.000000D+00  0.000000D+00  0.000000D+00  0.000000D+00  0.000000D+00
               21            22            23            24            25 
     21  0.138701D+01
     22  0.405200D+00  0.337200D+00
     23  0.000000D+00  0.000000D+00  0.319841D+01
     24  0.000000D+00  0.000000D+00  0.000000D+00  0.319841D+01
     25  0.000000D+00  0.000000D+00  0.000000D+00  0.000000D+00  0.319841D+01
     26  0.000000D+00  0.000000D+00  0.457572D+00  0.000000D+00  0.000000D+00
     27  0.000000D+00  0.000000D+00  0.000000D+00  0.457572D+00  0.000000D+00
     28  0.000000D+00  0.000000D+00  0.000000D+00  0.000000D+00  0.457572D+00
     29  0.000000D+00  0.000000D+00  0.000000D+00  0.000000D+00  0.000000D+00
     30  0.000000D+00  0.000000D+00  0.000000D+00  0.000000D+00  0.000000D+00
     31  0.000000D+00  0.000000D+00  0.000000D+00  0.000000D+00  0.000000D+00
     32  0.000000D+00  0.000000D+00  0.000000D+00  0.000000D+00  0.000000D+00
     33  0.000000D+00  0.000000D+00  0.000000D+00  0.000000D+00  0.000000D+00
               26            27            28            29            30 
     26  0.546250D+00
     27  0.000000D+00  0.546250D+00
     28  0.000000D+00  0.000000D+00  0.546250D+00
     29  0.000000D+00  0.000000D+00  0.000000D+00  0.285950D+01
     30  0.000000D+00  0.000000D+00  0.000000D+00  0.000000D+00  0.285950D+01
     31  0.000000D+00  0.000000D+00  0.000000D+00  0.000000D+00  0.000000D+00
     32  0.000000D+00  0.000000D+00  0.000000D+00  0.000000D+00  0.000000D+00
     33  0.000000D+00  0.000000D+00  0.000000D+00  0.000000D+00  0.000000D+00
               31            32            33 
     31  0.285950D+01
     32  0.000000D+00  0.285950D+01
     33  0.000000D+00  0.000000D+00  0.285950D+01
 Entering OneElI...
 OneElI was handed  6710884817 working-precision words.
 Calculate potential energy integrals
    NBasis =  33  MinDer = 0  MaxDer = 0
 Requested accuracy = 0.1000D-12
 ShPair: Thresh= 1.00D-13 NBox=     0 BxSize= 0.00D+00 RnKept= 4.19D+00
         NSMCal=                  120 NSMKep=                 120
 PrmmSu-InSpLW:  IPartL=    0 NPrtUS=    5 NPrtUL=    1 DoSpLW=F IThBeg=    0 IThEnd=    4 NThAct=    5.
 PrSmSu:  IncTry=   512 NBBP=            360 NTPThr=   100 NPartT=    5 Incr=           1 LDynOK=F GPUOK=F.
 PrsmSu:  NPrtUS=   5 ThrOK=T IAlg=1 LenDen=           0 ISkipM=0 DoSpLW=F IThBeg=    0 IThEnd=    4.
 Prism:   IPart=     0 DynPar=F LinDyn=F Incr=           1.
 PRISM was handed  1342165663 working-precision words and   120 shell-pairs
 PRISM was handed  1342165663 working-precision words and   120 shell-pairs
 PRISM was handed  1342165663 working-precision words and   120 shell-pairs
 PRISM was handed  1342165663 working-precision words and   120 shell-pairs
 PRISM was handed  1342165663 working-precision words and   120 shell-pairs
 IPart=  4 NShTot=          39 NBatch=          13 AvBLen=         3.0
 PrsmSu-ThDecC:  IPartSL=    4    0 NPrtUSL=    5    1 IThBeg=    0 IThEnd=    4 CPU=   -1 GPU=   -1 NThAct=    5.
 IPart=  0 NShTot=         126 NBatch=          42 AvBLen=         3.0
 PrsmSu-ThDecC:  IPartSL=    0    0 NPrtUSL=    5    1 IThBeg=    0 IThEnd=    4 CPU=   -1 GPU=   -1 NThAct=    4.
 IPart=  1 NShTot=          81 NBatch=          27 AvBLen=         3.0
 PrsmSu-ThDecC:  IPartSL=    1    0 NPrtUSL=    5    1 IThBeg=    0 IThEnd=    4 CPU=   -1 GPU=   -1 NThAct=    3.
 IPart=  2 NShTot=          63 NBatch=          21 AvBLen=         3.0
 PrsmSu-ThDecC:  IPartSL=    2    0 NPrtUSL=    5    1 IThBeg=    0 IThEnd=    4 CPU=   -1 GPU=   -1 NThAct=    2.
 IPart=  3 NShTot=          51 NBatch=          17 AvBLen=         3.0
 PrsmSu-ThDecC:  IPartSL=    3    0 NPrtUSL=    5    1 IThBeg=    0 IThEnd=    4 CPU=   -1 GPU=   -1 NThAct=    1.
 PrSmSu:  NxtVal=              6.
 ***** Potential Energy ***** 
                1             2             3             4             5 
      1  0.373443D+02
      2  0.255422D+01  0.889749D+01
      3  0.371750D+01  0.655152D+01  0.678622D+01
      4  0.000000D+00  0.000000D+00  0.000000D+00  0.921462D+01
      5  0.000000D+00  0.000000D+00  0.000000D+00  0.000000D+00  0.921462D+01
      6  0.143869D+00  0.101292D+01  0.951003D+00  0.000000D+00  0.000000D+00
      7  0.000000D+00  0.000000D+00  0.000000D+00  0.366366D+01  0.000000D+00
      8  0.000000D+00  0.000000D+00  0.000000D+00  0.000000D+00  0.366366D+01
      9  0.222271D-01  0.645399D+00  0.111194D+01  0.000000D+00  0.000000D+00
     10  0.124445D-01  0.576000D+00  0.748106D+00  0.000000D+00  0.000000D+00
     11  0.000000D+00  0.000000D+00  0.000000D+00  0.619896D+00  0.000000D+00
     12  0.000000D+00  0.000000D+00  0.000000D+00  0.000000D+00  0.619896D+00
     13  0.000000D+00  0.000000D+00  0.000000D+00  0.000000D+00  0.000000D+00
     14  0.000000D+00  0.000000D+00  0.000000D+00  0.000000D+00  0.000000D+00
     15  0.110387D+01  0.239367D+01  0.255946D+01  0.000000D+00  0.000000D+00
     16  0.186736D+01  0.358203D+01  0.416357D+01  0.000000D+00  0.000000D+00
     17  0.000000D+00  0.000000D+00  0.000000D+00  0.146119D+01  0.000000D+00
     18  0.000000D+00  0.000000D+00  0.000000D+00  0.000000D+00  0.146119D+01
     19  0.213223D+01  0.326488D+01  0.216944D+01  0.000000D+00  0.000000D+00
     20  0.573873D-03  0.943766D+00  0.181909D+01  0.000000D+00  0.000000D+00
     21  0.496011D+00  0.271617D+01  0.367392D+01  0.000000D+00  0.000000D+00
     22  0.171763D+01  0.398544D+01  0.499071D+01  0.000000D+00  0.000000D+00
     23  0.000000D+00  0.000000D+00  0.000000D+00  0.135056D+01  0.000000D+00
     24  0.000000D+00  0.000000D+00  0.000000D+00  0.000000D+00  0.135056D+01
     25 -0.100823D+01 -0.312568D+01 -0.205849D+01  0.000000D+00  0.000000D+00
     26  0.000000D+00  0.000000D+00  0.000000D+00  0.238133D+01  0.000000D+00
     27  0.000000D+00  0.000000D+00  0.000000D+00  0.000000D+00  0.238133D+01
     28 -0.338938D+01 -0.533027D+01 -0.428024D+01  0.000000D+00  0.000000D+00
     29  0.255250D+01  0.314176D+01  0.134885D+01  0.000000D+00  0.000000D+00
     30  0.000000D+00  0.000000D+00  0.000000D+00 -0.260690D+01  0.000000D+00
     31  0.000000D+00  0.000000D+00  0.000000D+00  0.000000D+00 -0.260690D+01
     32  0.000000D+00  0.000000D+00  0.000000D+00  0.000000D+00  0.000000D+00
     33  0.000000D+00  0.000000D+00  0.000000D+00  0.000000D+00  0.000000D+00
                6             7             8             9            10 
      6  0.987002D+01
      7  0.000000D+00  0.475854D+01
      8  0.000000D+00  0.000000D+00  0.475854D+01
      9  0.420952D+01  0.000000D+00  0.000000D+00  0.569996D+01
     10  0.128027D+01  0.000000D+00  0.000000D+00  0.131341D+01  0.786435D+01
     11  0.000000D+00  0.555975D+00  0.000000D+00  0.000000D+00  0.000000D+00
     12  0.000000D+00  0.000000D+00  0.555975D+00  0.000000D+00  0.000000D+00
     13  0.000000D+00  0.000000D+00  0.000000D+00  0.000000D+00  0.000000D+00
     14  0.000000D+00  0.000000D+00  0.000000D+00  0.000000D+00  0.000000D+00
     15 -0.243644D+01  0.000000D+00  0.000000D+00 -0.248706D+01  0.201099D+01
     16 -0.945312D+00  0.000000D+00  0.000000D+00 -0.170216D+01  0.466046D+00
     17  0.000000D+00  0.138101D+01  0.000000D+00  0.000000D+00  0.000000D+00
     18  0.000000D+00  0.000000D+00  0.138101D+01  0.000000D+00  0.000000D+00
     19 -0.314687D+01  0.000000D+00  0.000000D+00 -0.685259D+00  0.112892D+01
     20  0.185767D+01  0.000000D+00  0.000000D+00  0.301729D+01  0.422640D+01
     21  0.392785D+01  0.000000D+00  0.000000D+00  0.500818D+01  0.503264D+01
     22  0.340553D+01  0.000000D+00  0.000000D+00  0.499394D+01  0.288111D+01
     23  0.000000D+00  0.173885D+01  0.000000D+00  0.000000D+00  0.000000D+00
     24  0.000000D+00  0.000000D+00  0.173885D+01  0.000000D+00  0.000000D+00
     25 -0.390034D+01  0.000000D+00  0.000000D+00 -0.831264D+00 -0.312695D+01
     26  0.000000D+00  0.345367D+01  0.000000D+00  0.000000D+00  0.000000D+00
     27  0.000000D+00  0.000000D+00  0.345367D+01  0.000000D+00  0.000000D+00
     28 -0.195189D+01  0.000000D+00  0.000000D+00  0.150816D-01  0.134294D+00
     29  0.303418D+01  0.000000D+00  0.000000D+00 -0.170368D+00  0.600604D+00
     30  0.000000D+00 -0.127557D+01  0.000000D+00  0.000000D+00  0.000000D+00
     31  0.000000D+00  0.000000D+00 -0.127557D+01  0.000000D+00  0.000000D+00
     32  0.000000D+00  0.000000D+00  0.000000D+00  0.000000D+00  0.000000D+00
     33  0.000000D+00  0.000000D+00  0.000000D+00  0.000000D+00  0.000000D+00
               11            12            13            14            15 
     11  0.698199D+01
     12  0.000000D+00  0.698199D+01
     13  0.000000D+00  0.000000D+00  0.648269D+01
     14  0.000000D+00  0.000000D+00  0.000000D+00  0.648269D+01
     15  0.000000D+00  0.000000D+00  0.000000D+00  0.000000D+00  0.462471D+01
     16  0.000000D+00  0.000000D+00  0.000000D+00  0.000000D+00  0.312026D+01
     17 -0.238853D+01  0.000000D+00  0.000000D+00  0.000000D+00  0.000000D+00
     18  0.000000D+00 -0.238853D+01  0.000000D+00  0.000000D+00  0.000000D+00
     19  0.000000D+00  0.000000D+00  0.000000D+00  0.000000D+00  0.115556D+01
     20  0.000000D+00  0.000000D+00  0.000000D+00  0.000000D+00  0.374901D-02
     21  0.000000D+00  0.000000D+00  0.000000D+00  0.000000D+00  0.685169D-01
     22  0.000000D+00  0.000000D+00  0.000000D+00  0.000000D+00  0.432986D+00
     23  0.322422D+01  0.000000D+00  0.000000D+00  0.000000D+00  0.000000D+00
     24  0.000000D+00  0.322422D+01  0.000000D+00  0.000000D+00  0.000000D+00
     25  0.000000D+00  0.000000D+00  0.000000D+00  0.000000D+00 -0.117926D+00
     26  0.257597D+01  0.000000D+00  0.000000D+00  0.000000D+00  0.000000D+00
     27  0.000000D+00  0.257597D+01  0.000000D+00  0.000000D+00  0.000000D+00
     28  0.000000D+00  0.000000D+00  0.000000D+00  0.000000D+00 -0.110308D+01
     29  0.000000D+00  0.000000D+00  0.000000D+00  0.000000D+00  0.234652D+00
     30 -0.363116D+01  0.000000D+00  0.000000D+00  0.000000D+00  0.000000D+00
     31  0.000000D+00 -0.363116D+01  0.000000D+00  0.000000D+00  0.000000D+00
     32  0.000000D+00  0.000000D+00  0.150347D+01  0.000000D+00  0.000000D+00
     33  0.000000D+00  0.000000D+00  0.000000D+00  0.150347D+01  0.000000D+00
               16            17            18            19            20 
     16  0.416451D+01
     17  0.000000D+00  0.435642D+01
     18  0.000000D+00  0.000000D+00  0.435642D+01
     19  0.103763D+01  0.000000D+00  0.000000D+00  0.517621D+01
[...]
 PrismC:  IPart=     4 DynPar=F LinDyn=F Incr=          14 UseFst=F UseS4=T ISplat=2.
 PrismC was handed  1342098453 working-precision words and   120 shell-pairs
 PrismC was handed  1342098453 working-precision words and   120 shell-pairs
 PrismC was handed  1342098453 working-precision words and   120 shell-pairs
 CoulSu:  NxtVal=             71 LenVP=     1342098454 MinMC=       8.
 FoFCou EC=  27.9338091401     ENF=  27.9338091401    
 FoF2E:  FMaxA= 1.19D+01S
 ChkPGP:  NMat=1 NMatS=1 NMatT=0 NMtPBC=     1
 EA=  55.8676182803      0.00000000000      0.00000000000      0.00000000000    
 EB=  55.8676182803      0.00000000000      0.00000000000      0.00000000000    
 ETotA=  55.8676182803     ETotB=  55.8676182803    
 1/2 <PG(P)>=          55.867618280267
 IMat=  1 1/2 <PG(P)>=          55.867618280267
 IMat=  1 EOne=-0.167222390250D+03 ETwo= 0.558676182803D+02 Energy=-0.111354771970D+03
 FoFCou: FMM=F IPFlag=           0 FMFlag=           0 FMFlg1=           0
         NFxFlg=           0 DoJE=F BraDBF=F KetDBF=F FulRan=T
         wScrn=  0.000000 ICntrl=       500 IOpCl=  1 I1Cent=           0 NGrid=           0
         NMat0=    1 NMatS0=      1 NMatT0=    0 NMatD0=    1 NMtDS0=    0 NMtDT0=    0
 Symmetry not used in FoFCou.
 FoFCou:  KetSym=F NOpSet=  0 NOpAb=0 NOp=  1.
 FoFCou:  CnvScl= 1.00D+00 Thresh= 1.00D-08 IAcrcy=      10.
 ShPair: Thresh= 1.00D-08 NBox=     0 BxSize= 0.00D+00 RnKept= 4.19D+00
         NSMCal=                  325 NSMKep=                 315
 PrismS was handed  6710502685 working-precision words and   315 shell-pairs
 FoFCou: LinMIO=F DoNuc=F BraDBF=F KetDBF=F HaveP=T PDBF=F HaveZ=F HaveW=F
         NIJTC =      10 NIJTAt=       0 NIJTCD=       0 NIJTT =      10
         IJTBeg=       1 IJTEnd=      10 KLTBeg=       1 KLTEnd=      10
         IPTBeg=       1 IPTEnd=      10 IPTBCv=       1 IPTECv=      10
         IZTBeg=       1 IZTEnd=      10 IZTBCv=       1 IZTECv=      10
         IWTBeg=      11 IWTEnd=      10 IWTBCv=      11 IWTECv=      10
         INTBeg=       1 INTEnd=       0 IFTBCv=       1 IFTECv=      10
 NCel replicated for PrismC:     1
 CoulSu-InSpLW:  IPartL=    0 NPrtUS=    5 NPrtUL=    1 DoSpLW=F IThBeg=    0 IThEnd=    4 NThAct=    5.
 CoulSu:  IncTry=  1024 NBBP=          49770 NTPThr=   100 NPartT=    5 Incr=          99 LDynOK=F GPUOK=F.
 CoulSu:  NPrtUS=   5 ThrOK=T IAlg=1 LenDen=        2485 LWGrdD=           0 DoCopy=T ISkipM=0
          DoSpLW=F IThBeg=    0 IThEnd=    4.
 CoulSu:  IPart=    0 IPartR=    0 CPU=   -1 GPU=   -1.
 CoulSu:  IPart=    2 IPartR=    2 CPU=   -1 GPU=   -1.
 CoulSu:  IPart=    4 IPartR=    4 CPU=   -1 GPU=   -1.
 Enter PrismC:  IPart=  0 JobTyp=20 DoJE=F Cont=F.
 CoulSu:  IPart=    3 IPartR=    3 CPU=   -1 GPU=   -1.
 Enter PrismC:  IPart=  2 JobTyp=20 DoJE=F Cont=F.
 CoulSu:  IPart=    1 IPartR=    1 CPU=   -1 GPU=   -1.
 PrismC:  IPart=     0 DynPar=F LinDyn=F Incr=          99 UseFst=F UseS4=T ISplat=2.
 PrismC was handed  1342083999 working-precision words and   315 shell-pairs
 PrismC:  IPart=     2 DynPar=F LinDyn=F Incr=          99 UseFst=F UseS4=T ISplat=2.
 PrismC was handed  1342083999 working-precision words and   315 shell-pairs
 Enter PrismC:  IPart=  4 JobTyp=20 DoJE=F Cont=F.
 Enter PrismC:  IPart=  3 JobTyp=20 DoJE=F Cont=F.
 PrismC:  IPart=     4 DynPar=F LinDyn=F Incr=          99 UseFst=F UseS4=T ISplat=2.
 PrismC:  IPart=     3 DynPar=F LinDyn=F Incr=          99 UseFst=F UseS4=T ISplat=2.
 PrismC was handed  1342083999 working-precision words and   315 shell-pairs
 Enter PrismC:  IPart=  1 JobTyp=20 DoJE=F Cont=F.
 PrismC was handed  1342083999 working-precision words and   315 shell-pairs
 PrismC:  IPart=     1 DynPar=F LinDyn=F Incr=          99 UseFst=F UseS4=T ISplat=2.
 PrismC was handed  1342083999 working-precision words and   315 shell-pairs
 IPart=  1 NShTot=        4786 NShNF=        4786 NShFF=           0 MinMC=       7
           NShCPU=        4786 NBCPU=         389 AvBCPU=        12.3
           NShGPU=           0 NBGPU=           0 AvBGPU=         0.0
 CoulSu-ThDecC:  IPartSL=    1    0 NPrtUSL=    5    1 IThBeg=    0 IThEnd=    4 CPU=   -1 GPU=   -1 NThAct=    5.
 IPart=  3 NShTot=        5060 NShNF=        5060 NShFF=           0 MinMC=       7
           NShCPU=        5060 NBCPU=         401 AvBCPU=        12.6
           NShGPU=           0 NBGPU=           0 AvBGPU=         0.0
 CoulSu-ThDecC:  IPartSL=    3    0 NPrtUSL=    5    1 IThBeg=    0 IThEnd=    4 CPU=   -1 GPU=   -1 NThAct=    4.
 IPart=  2 NShTot=        4742 NShNF=        4742 NShFF=           0 MinMC=       7
           NShCPU=        4742 NBCPU=         368 AvBCPU=        12.9
           NShGPU=           0 NBGPU=           0 AvBGPU=         0.0
 CoulSu-ThDecC:  IPartSL=    2    0 NPrtUSL=    5    1 IThBeg=    0 IThEnd=    4 CPU=   -1 GPU=   -1 NThAct=    3.
 IPart=  0 NShTot=        4920 NShNF=        4920 NShFF=           0 MinMC=       7
           NShCPU=        4920 NBCPU=         451 AvBCPU=        10.9
           NShGPU=           0 NBGPU=           0 AvBGPU=         0.0
 CoulSu-ThDecC:  IPartSL=    0    0 NPrtUSL=    5    1 IThBeg=    0 IThEnd=    4 CPU=   -1 GPU=   -1 NThAct=    2.
 IPart=  4 NShTot=        4977 NShNF=        4977 NShFF=           0 MinMC=       7
           NShCPU=        4977 NBCPU=         390 AvBCPU=        12.8
           NShGPU=           0 NBGPU=           0 AvBGPU=         0.0
 CoulSu-ThDecC:  IPartSL=    4    0 NPrtUSL=    5    1 IThBeg=    0 IThEnd=    4 CPU=   -1 GPU=   -1 NThAct=    1.
 CoulSu:  NxtVal=            496 LenVP=     1342084000 MinMC=       7.
 FoFCou EC=  1.33875314416     ENF=  1.33875314416    
 FoFCou: FMM=F IPFlag=           0 FMFlag=           0 FMFlg1=           0
         NFxFlg=           0 DoJE=F BraDBF=F KetDBF=F FulRan=T
         wScrn=  0.000000 ICntrl=       500 IOpCl=  1 I1Cent=           0 NGrid=           0
         NMat0=    1 NMatS0=      1 NMatT0=    0 NMatD0=    1 NMtDS0=    0 NMtDT0=    0
 Symmetry not used in FoFCou.
 FoFCou:  KetSym=F NOpSet=  0 NOpAb=0 NOp=  1.
 FoFCou:  CnvScl= 1.00D+00 Thresh= 1.00D-08 IAcrcy=      10.
 ShPair: Thresh= 1.00D-08 NBox=     0 BxSize= 0.00D+00 RnKept= 4.19D+00
         NSMCal=                  325 NSMKep=                 315
 PrismS was handed  6710502531 working-precision words and   315 shell-pairs
 FoFCou: LinMIO=F DoNuc=F BraDBF=F KetDBF=F HaveP=T PDBF=F HaveZ=F HaveW=F
         NIJTC =      10 NIJTAt=       0 NIJTCD=       0 NIJTT =      10
         IJTBeg=       1 IJTEnd=      10 KLTBeg=       1 KLTEnd=      10
         IPTBeg=       1 IPTEnd=      10 IPTBCv=       1 IPTECv=      10
         IZTBeg=       1 IZTEnd=      10 IZTBCv=       1 IZTECv=      10
         IWTBeg=      11 IWTEnd=      10 IWTBCv=      11 IWTECv=      10
         INTBeg=       1 INTEnd=       0 IFTBCv=       1 IFTECv=      10
 NCel replicated for PrismC:     1
 CoulSu-InSpLW:  IPartL=    0 NPrtUS=    5 NPrtUL=    1 DoSpLW=F IThBeg=    0 IThEnd=    4 NThAct=    5.
 CoulSu:  IncTry=  1024 NBBP=          49770 NTPThr=   100 NPartT=    5 Incr=          99 LDynOK=F GPUOK=F.
 CoulSu:  NPrtUS=   5 ThrOK=T IAlg=1 LenDen=        2485 LWGrdD=           0 DoCopy=T ISkipM=0
          DoSpLW=F IThBeg=    0 IThEnd=    4.
 CoulSu:  IPart=    0 IPartR=    0 CPU=   -1 GPU=   -1.
 CoulSu:  IPart=    1 IPartR=    1 CPU=   -1 GPU=   -1.
 Enter PrismC:  IPart=  0 JobTyp=20 DoJE=F Cont=F.
 CoulSu:  IPart=    4 IPartR=    4 CPU=   -1 GPU=   -1.
 Enter PrismC:  IPart=  1 JobTyp=20 DoJE=F Cont=F.
 CoulSu:  IPart=    2 IPartR=    2 CPU=   -1 GPU=   -1.
 PrismC:  IPart=     0 DynPar=F LinDyn=F Incr=          99 UseFst=F UseS4=T ISplat=2.
 CoulSu:  IPart=    3 IPartR=    3 CPU=   -1 GPU=   -1.
 PrismC:  IPart=     1 DynPar=F LinDyn=F Incr=          99 UseFst=F UseS4=T ISplat=2.
 PrismC was handed  1342083898 working-precision words and   315 shell-pairs
 Enter PrismC:  IPart=  4 JobTyp=20 DoJE=F Cont=F.
 Enter PrismC:  IPart=  3 JobTyp=20 DoJE=F Cont=F.
 PrismC:  IPart=     4 DynPar=F LinDyn=F Incr=          99 UseFst=F UseS4=T ISplat=2.
 Enter PrismC:  IPart=  2 JobTyp=20 DoJE=F Cont=F.
 PrismC:  IPart=     3 DynPar=F LinDyn=F Incr=          99 UseFst=F UseS4=T ISplat=2.
 PrismC:  IPart=     2 DynPar=F LinDyn=F Incr=          99 UseFst=F UseS4=T ISplat=2.
 PrismC was handed  1342083898 working-precision words and   315 shell-pairs
 PrismC was handed  1342083898 working-precision words and   315 shell-pairs
 PrismC was handed  1342083898 working-precision words and   315 shell-pairs
 PrismC was handed  1342083898 working-precision words and   315 shell-pairs
 IPart=  4 NShTot=        7479 NShNF=        7479 NShFF=           0 MinMC=       7
           NShCPU=        7479 NBCPU=         634 AvBCPU=        11.8
           NShGPU=           0 NBGPU=           0 AvBGPU=         0.0
 CoulSu-ThDecC:  IPartSL=    4    0 NPrtUSL=    5    1 IThBeg=    0 IThEnd=    4 CPU=   -1 GPU=   -1 NThAct=    5.
 IPart=  3 NShTot=        7649 NShNF=        7649 NShFF=           0 MinMC=       7
           NShCPU=        7649 NBCPU=         676 AvBCPU=        11.3
           NShGPU=           0 NBGPU=           0 AvBGPU=         0.0
 CoulSu-ThDecC:  IPartSL=    3    0 NPrtUSL=    5    1 IThBeg=    0 IThEnd=    4 CPU=   -1 GPU=   -1 NThAct=    4.
 IPart=  2 NShTot=        7948 NShNF=        7948 NShFF=           0 MinMC=       7
           NShCPU=        7948 NBCPU=         744 AvBCPU=        10.7
           NShGPU=           0 NBGPU=           0 AvBGPU=         0.0
 CoulSu-ThDecC:  IPartSL=    2    0 NPrtUSL=    5    1 IThBeg=    0 IThEnd=    4 CPU=   -1 GPU=   -1 NThAct=    3.
 IPart=  1 NShTot=        8169 NShNF=        8169 NShFF=           0 MinMC=       7
           NShCPU=        8169 NBCPU=         823 AvBCPU=         9.9
           NShGPU=           0 NBGPU=           0 AvBGPU=         0.0
 CoulSu-ThDecC:  IPartSL=    1    0 NPrtUSL=    5    1 IThBeg=    0 IThEnd=    4 CPU=   -1 GPU=   -1 NThAct=    2.
 IPart=  0 NShTot=        8421 NShNF=        8421 NShFF=           0 MinMC=       7
           NShCPU=        8421 NBCPU=        1046 AvBCPU=         8.1
           NShGPU=           0 NBGPU=           0 AvBGPU=         0.0
 CoulSu-ThDecC:  IPartSL=    0    0 NPrtUSL=    5    1 IThBeg=    0 IThEnd=    4 CPU=   -1 GPU=   -1 NThAct=    1.
 CoulSu:  NxtVal=            496 LenVP=     1342083899 MinMC=       7.
 FoFCou EC=  33.9559471434     ENF=  33.9559471434    
 Enegy Component Breakdown at Iteration                       71
 Classical nuclear potential =     19.38378061978021     
 Quantum-classical nuclear potential =     4.594193479130984     
 Quantum nuclear potential =   -4.1633363423443370E-017
 Pure electronic energy =   -111.3547719697367     
 Electron-quantum-nuclear potential =    -5.467752569589892     
 Quantum-nuclear-electron potential =    -5.467752569589891     
 DIIS: error= 9.77D-11 at cycle  71 NSaved=  10.
 B matrix at iteration         71
                 1             2             3             4             5 
      1   0.000000D+00 -0.100000D+01 -0.100000D+01 -0.100000D+01 -0.100000D+01
      2  -0.100000D+01  0.221891D-11  0.427997D-12  0.149628D-12  0.297597D-13
      3  -0.100000D+01  0.427997D-12  0.217159D-12  0.118543D-12  0.165714D-13
      4  -0.100000D+01  0.149628D-12  0.118543D-12  0.783370D-13  0.176818D-13
      5  -0.100000D+01  0.297597D-13  0.165714D-13  0.176818D-13  0.156412D-13
      6  -0.100000D+01  0.188630D-13  0.934523D-14  0.865199D-14  0.747457D-14
      7  -0.100000D+01  0.906901D-14  0.449151D-14  0.420403D-14  0.352539D-14
      8  -0.100000D+01  0.583033D-15  0.834966D-15  0.889612D-15  0.833736D-15
      9  -0.100000D+01  0.456062D-15  0.340566D-15  0.166605D-15  0.287068D-15
     10  -0.100000D+01 -0.619062D-15 -0.166265D-15 -0.105485D-15 -0.273042D-16
     11  -0.100000D+01 -0.191701D-15 -0.480837D-16 -0.191700D-16  0.130522D-16
                 6             7             8             9            10 
      1  -0.100000D+01 -0.100000D+01 -0.100000D+01 -0.100000D+01 -0.100000D+01
      2   0.188630D-13  0.906901D-14  0.583033D-15  0.456062D-15 -0.619062D-15
      3   0.934523D-14  0.449151D-14  0.834966D-15  0.340566D-15 -0.166265D-15
      4   0.865199D-14  0.420403D-14  0.889612D-15  0.166605D-15 -0.105485D-15
      5   0.747457D-14  0.352539D-14  0.833736D-15  0.287068D-15 -0.273042D-16
      6   0.531721D-14  0.342822D-14  0.824652D-15  0.312085D-15 -0.273998D-16
      7   0.342822D-14  0.270304D-14  0.829599D-15  0.317963D-15 -0.123780D-17
      8   0.824652D-15  0.829599D-15  0.800108D-15  0.345356D-15  0.236938D-16
      9   0.312085D-15  0.317963D-15  0.345356D-15  0.208281D-15  0.235632D-16
     10  -0.273998D-16 -0.123780D-17  0.236938D-16  0.235632D-16  0.177194D-16
     11   0.665705D-17  0.129158D-16  0.165685D-16  0.161863D-16  0.144397D-16
                11 
      1  -0.100000D+01
      2  -0.191701D-15
      3  -0.480837D-16
      4  -0.191700D-16
      5   0.130522D-16
      6   0.665705D-17
      7   0.129158D-16
      8   0.165685D-16
      9   0.161863D-16
     10   0.144397D-16
     11   0.128083D-16
 B matrix at iteration         71
                 1             2             3             4             5 
      1   0.000000D+00 -0.100000D+01 -0.100000D+01 -0.100000D+01 -0.100000D+01
      2  -0.100000D+01  0.221891D-11  0.427997D-12  0.149628D-12  0.297597D-13
      3  -0.100000D+01  0.427997D-12  0.217159D-12  0.118543D-12  0.165714D-13
      4  -0.100000D+01  0.149628D-12  0.118543D-12  0.783370D-13  0.176818D-13
      5  -0.100000D+01  0.297597D-13  0.165714D-13  0.176818D-13  0.156412D-13
      6  -0.100000D+01  0.188630D-13  0.934523D-14  0.865199D-14  0.747457D-14
      7  -0.100000D+01  0.906901D-14  0.449151D-14  0.420403D-14  0.352539D-14
      8  -0.100000D+01  0.583033D-15  0.834966D-15  0.889612D-15  0.833736D-15
      9  -0.100000D+01  0.456062D-15  0.340566D-15  0.166605D-15  0.287068D-15
     10  -0.100000D+01 -0.619062D-15 -0.166265D-15 -0.105485D-15 -0.273042D-16
     11  -0.100000D+01 -0.191701D-15 -0.480837D-16 -0.191700D-16  0.130522D-16
                 6             7             8             9            10 
      1  -0.100000D+01 -0.100000D+01 -0.100000D+01 -0.100000D+01 -0.100000D+01
      2   0.188630D-13  0.906901D-14  0.583033D-15  0.456062D-15 -0.619062D-15
      3   0.934523D-14  0.449151D-14  0.834966D-15  0.340566D-15 -0.166265D-15
      4   0.865199D-14  0.420403D-14  0.889612D-15  0.166605D-15 -0.105485D-15
      5   0.747457D-14  0.352539D-14  0.833736D-15  0.287068D-15 -0.273042D-16
      6   0.531721D-14  0.342822D-14  0.824652D-15  0.312085D-15 -0.273998D-16
      7   0.342822D-14  0.270304D-14  0.829599D-15  0.317963D-15 -0.123780D-17
      8   0.824652D-15  0.829599D-15  0.800108D-15  0.345356D-15  0.236938D-16
      9   0.312085D-15  0.317963D-15  0.345356D-15  0.208281D-15  0.235632D-16
     10  -0.273998D-16 -0.123780D-17  0.236938D-16  0.235632D-16  0.177194D-16
     11   0.665705D-17  0.129158D-16  0.165685D-16  0.161863D-16  0.144397D-16
                11 
      1  -0.100000D+01
      2  -0.191701D-15
      3  -0.480837D-16
      4  -0.191700D-16
      5   0.130522D-16
      6   0.665705D-17
      7   0.129158D-16
      8   0.165685D-16
      9   0.161863D-16
     10   0.144397D-16
     11   0.128083D-16
 NSaved=10 IEnMin= 1 EnMin=  0.00000000000000     IErMin=10 ErrMin= 9.77D-11
 ErrMax= 9.77D-11  0.00D+00 EMaxC= 1.00D+00 BMatC= 1.28D-17 BMatP= 1.77D-17
 IDIUse=1 WtCom= 1.00D+00 WtEn= 0.00D+00
 Inv2:  IOpt= 1 Iter= 1 AM= 3.78D+05 Conv= 1.00D-12.
 Inv2:  IOpt= 1 Iter= 2 AM= 2.81D-08 Conv= 1.00D-12.
 Inv2:  IOpt= 1 Iter= 3 AM= 3.30D-21 Conv= 1.00D-12.
 Coeff-Com: -0.307D-02 0.286D-01-0.450D-01 0.135D+00-0.431D+00 0.400D+00
 Coeff-Com: -0.166D+00 0.260D+00-0.454D+01 0.536D+01
 Coeff-En:   0.000D+00 0.000D+00 0.000D+00 0.000D+00 0.000D+00 0.000D+00
 Coeff-En:   0.000D+00 0.000D+00 0.000D+00 0.000D+00
 Coeff:     -0.307D-02 0.286D-01-0.450D-01 0.135D+00-0.431D+00 0.400D+00
 Coeff:     -0.166D+00 0.260D+00-0.454D+01 0.536D+01
 Has Electronic Subsystem Converged:   T
 Has Protonic Subsystem Converged:   T
 Simultaneous Optimization Iteration #                       71
 The Energy for This Iteration is:    -92.84455044041538     
 TOTAL ENERGY HAS CONVERGED!!!
 NEO-SCF Converged After Iteration #                       71
 E= -92.8445504404154    
 Elec Eigen 
                 1             2 
      1  -0.155990D+02  0.000000D+00
      2  -0.112917D+02  0.000000D+00
      3  -0.123680D+01  0.000000D+00
      4  -0.791694D+00  0.000000D+00
      5  -0.574420D+00  0.000000D+00
      6  -0.491927D+00  0.000000D+00
      7  -0.491927D+00  0.000000D+00
      8   0.175888D+00  0.000000D+00
      9   0.192428D+00  0.000000D+00
     10   0.192428D+00  0.000000D+00
     11   0.348605D+00  0.000000D+00
     12   0.673057D+00  0.000000D+00
     13   0.673057D+00  0.000000D+00
     14   0.761997D+00  0.000000D+00
     15   0.877389D+00  0.000000D+00
     16   0.931408D+00  0.000000D+00
     17   0.105277D+01  0.000000D+00
     18   0.105277D+01  0.000000D+00
     19   0.131458D+01  0.000000D+00
     20   0.132854D+01  0.000000D+00
     21   0.132854D+01  0.000000D+00
     22   0.133247D+01  0.000000D+00
     23   0.133247D+01  0.000000D+00
     24   0.169133D+01  0.000000D+00
     25   0.200098D+01  0.000000D+00
     26   0.200098D+01  0.000000D+00
     27   0.219206D+01  0.000000D+00
     28   0.219206D+01  0.000000D+00
     29   0.239554D+01  0.000000D+00
     30   0.289787D+01  0.000000D+00
     31   0.289787D+01  0.000000D+00
     32   0.318661D+01  0.000000D+00
     33   0.348815D+01  0.000000D+00
 Prot Eigen 
                 1             2 
      1  -0.873559D+00  0.000000D+00
      2   0.934350D+00  0.000000D+00
      3   0.110222D+01  0.000000D+00
      4   0.110222D+01  0.000000D+00
      5   0.113905D+01  0.000000D+00
      6   0.131607D+01  0.000000D+00
      7   0.131607D+01  0.000000D+00
      8   0.133367D+01  0.000000D+00
      9   0.133367D+01  0.000000D+00
     10   0.134263D+01  0.000000D+00
     11   0.159078D+01  0.000000D+00
     12   0.159078D+01  0.000000D+00
     13   0.160399D+01  0.000000D+00
     14   0.160399D+01  0.000000D+00
     15   0.161190D+01  0.000000D+00
     16   0.161190D+01  0.000000D+00
     17   0.161473D+01  0.000000D+00
     18   0.172389D+01  0.000000D+00
     19   0.206398D+01  0.000000D+00
     20   0.206398D+01  0.000000D+00
     21   0.210608D+01  0.000000D+00
     22   0.273876D+01  0.000000D+00
     23   0.273876D+01  0.000000D+00
     24   0.274538D+01  0.000000D+00
     25   0.274538D+01  0.000000D+00
     26   0.274878D+01  0.000000D+00
     27   0.317313D+01  0.000000D+00
     28   0.317694D+01  0.000000D+00
     29   0.317694D+01  0.000000D+00
     30   0.333914D+01  0.000000D+00
 Leave Link  502 at Wed Jun 15 18:21:01 2022, MaxMem=  6710886400 cpu:              98.9 elap:              27.9
 (Enter /home/software/gaussian/gdv/j19/gdv/l601.exe)
 Copying SCF densities to generalized density rwf, IOpCl=** IROHF=0.
 Alpha  occ. eigenvalues --  -15.59898 -11.29170  -1.23680  -0.79169  -0.57442
 Alpha  occ. eigenvalues --   -0.49193  -0.49193
 Alpha virt. eigenvalues --    0.17589   0.19243   0.19243   0.34861   0.67306
 Alpha virt. eigenvalues --    0.67306   0.76200   0.87739   0.93141   1.05277
 Alpha virt. eigenvalues --    1.05277   1.31458   1.32854   1.32854   1.33247
 Alpha virt. eigenvalues --    1.33247   1.69133   2.00098   2.00098   2.19206
 Alpha virt. eigenvalues --    2.19206   2.39554   2.89787   2.89787   3.18661
 Alpha virt. eigenvalues --    3.48815
 Nuclear orbitals not supported in not supported in RdDen.
 Error termination via Lnk1e in /home/software/gaussian/gdv/j19/gdv/l601.exe at Wed Jun 15 18:21:01 2022.
 Job cpu time:       0 days  0 hours  1 minutes 42.7 seconds.
 Elapsed time:       0 days  0 hours  0 minutes 29.7 seconds.
 File lengths (MBytes):  RWF=      6 Int=      0 D2E=      0 Chk=      1 Scr=      1
