 Entering Gaussian System, Link 0=gdv
 Input=hcn_ccpvtz_pb4d.gjf
 Output=hcn_ccpvtz_pb4d.log
 Initial command:
 /home/software/gaussian/gdv/j19/gdv/l1.exe "/home/aodongliu/GauScr/Gau-421509.inp" -scrdir="/home/aodongliu/GauScr/" -exedir="/home/aodongliu/neo_scf/exe-dir:/home/software/gaussian/gdv/j19/gdv/bsd:/home/software/gaussian/gdv/j19/gdv/local:/home/software/gaussian/gdv/j19/gdv/extras:/home/software/gaussian/gdv/j19/gdv"
 Entering Link 1 = /home/software/gaussian/gdv/j19/gdv/l1.exe PID=    421510.
  
 Copyright (c) 1988-2021, Gaussian, Inc.  All Rights Reserved.
  
 This is the private, development version of
 the Gaussian(R) DV system of programs. It is based on
 the Gaussian(R) 16 system (copyright 2016, Gaussian, Inc.),
 the Gaussian(R) 09 system (copyright 2009, Gaussian, Inc.),
 the Gaussian(R) 03 system (copyright 2003, Gaussian, Inc.),
 the Gaussian(R) 98 system (copyright 1998, Gaussian, Inc.),
 the Gaussian(R) 94 system (copyright 1995, Gaussian, Inc.),
 the Gaussian 92(TM) system (copyright 1992, Gaussian, Inc.),
 the Gaussian 90(TM) system (copyright 1990, Gaussian, Inc.),
 the Gaussian 88(TM) system (copyright 1988, Gaussian, Inc.),
 the Gaussian 86(TM) system (copyright 1986, Carnegie Mellon
 University), and the Gaussian 82(TM) system (copyright 1983,
 Carnegie Mellon University). Gaussian is a federally registered
 trademark of Gaussian, Inc.
  
 This software contains proprietary and confidential information,
 including trade secrets, belonging to Gaussian, Inc.
  
 This software is provided under written license and may be
 used, copied, transmitted, or stored only in accord with that
 written license.
  
 The following legend is applicable only to US Government
 contracts under FAR:
  
                    RESTRICTED RIGHTS LEGEND
  
 Use, reproduction and disclosure by the US Government is
 subject to restrictions as set forth in subparagraphs (a)
 and (c) of the Commercial Computer Software - Restricted
 Rights clause in FAR 52.227-19.
  
 Gaussian, Inc.
 340 Quinnipiac St., Bldg. 40, Wallingford CT 06492
  
  
 ---------------------------------------------------------------
 Warning -- This program may not be used in any manner that
 competes with the business of Gaussian, Inc. or will provide
 assistance to any competitor of Gaussian, Inc.  The licensee
 of this program is prohibited from giving any competitor of
 Gaussian, Inc. access to this program.  By using this program,
 the user acknowledges that Gaussian, Inc. is engaged in the
 business of creating and licensing software in the field of
 computational chemistry and represents and warrants to the
 licensee that it is not a competitor of Gaussian, Inc. and that
 it will not use this program in any manner prohibited above.
 ---------------------------------------------------------------
  

 Cite this work as:
 Gaussian Development Version, Revision J.19,
 M. J. Frisch, G. W. Trucks, H. B. Schlegel, G. E. Scuseria, 
 M. A. Robb, J. R. Cheeseman, G. Scalmani, V. Barone, 
 G. A. Petersson, H. Nakatsuji, X. Li, A. V. Marenich, M. Caricato, 
 J. Bloino, B. G. Janesko, J. Zheng, R. Gomperts, B. Mennucci, 
 H. P. Hratchian, J. V. Ortiz, A. F. Izmaylov, J. L. Sonnenberg, 
 D. Williams-Young, F. Ding, F. Lipparini, F. Egidi, J. Goings, 
 B. Peng, A. Petrone, T. Henderson, D. Ranasinghe, V. G. Zakrzewski, 
 J. Gao, N. Rega, G. Zheng, W. Liang, M. Hada, M. Ehara, K. Toyota, 
 R. Fukuda, J. Hasegawa, M. Ishida, T. Nakajima, Y. Honda, O. Kitao, 
 H. Nakai, T. Vreven, K. Throssell, J. A. Montgomery, Jr., 
 J. E. Peralta, F. Ogliaro, M. J. Bearpark, J. J. Heyd, 
 E. N. Brothers, K. N. Kudin, V. N. Staroverov, T. A. Keith, 
 R. Kobayashi, J. Normand, K. Raghavachari, A. P. Rendell, 
 J. C. Burant, S. S. Iyengar, J. Tomasi, M. Cossi, J. M. Millam, 
 M. Klene, C. Adamo, R. Cammi, J. W. Ochterski, R. L. Martin, 
 K. Morokuma, O. Farkas, J. B. Foresman, and D. J. Fox, 
 Gaussian, Inc., Wallingford CT, 2020.
 
 ******************************************
 Gaussian DV:  ES64L-GDVRevJ.19 27-Nov-2021
                15-Jun-2022 
 ******************************************
 %mem=50gb
 %nproc=15
 Will use up to   15 processors via shared memory.
 ----------------------------------------------------------------------
 #p rhf/cc-pvtz test neo=gen gfinput guess=print # iop33(3=2,4=2,5=2) i
 op(5/73=0,5/81=0) nosymm
 ----------------------------------------------------------------------
 1/37=210000000,38=1,172=1/1;
 2/12=2,15=1/2;
 3/5=16,6=1,11=1,24=10,25=1,30=1,33=2,116=1,187=7/1,2,3;
 4/10=1,33=2/1;
 5/5=2,33=2,38=5/2;
 6/7=2,8=2,9=2,10=2,28=1/1;
 99/5=1,9=1/99;
 Leave Link    1 at Wed Jun 15 18:22:18 2022, MaxMem=  6710886400 cpu:               0.1 elap:               0.1
 (Enter /home/software/gaussian/gdv/j19/gdv/l101.exe)
 ---
 hcn
 ---
 Symbolic Z-matrix:
 Charge =  0 Multiplicity = 1
 c                     0.        0.       -0.49687 
 h                     0.        0.       -1.56687 
 n                     0.        0.        0.64973 
 
 ITRead=  0  0  0
 MicOpt= -1 -1 -1
 NAtoms=      3 NQM=        3 NQMF=       0 NMMI=      0 NMMIF=      0
                NMic=       0 NMicF=      0.
                    Isotopes and Nuclear Properties:
 (Nuclear quadrupole moments (NQMom) in fm**2, nuclear magnetic moments (NMagM)
  in nuclear magnetons)

  Atom         1           2           3
 IAtWgt=          12           1          14
 AtmWgt=  12.0000000   1.0078250  14.0030740
 NucSpn=           0           1           2
 AtZEff=   0.0000000   0.0000000   0.0000000
 NQMom=    0.0000000   0.0000000   2.0440000
 NMagM=    0.0000000   2.7928460   0.4037610
 AtZNuc=   6.0000000   1.0000000   7.0000000
 Leave Link  101 at Wed Jun 15 18:22:18 2022, MaxMem=  6710886400 cpu:               0.3 elap:               0.2
 (Enter /home/software/gaussian/gdv/j19/gdv/l202.exe)
                          Input orientation:                          
 ---------------------------------------------------------------------
 Center     Atomic      Atomic             Coordinates (Angstroms)
 Number     Number       Type             X           Y           Z
 ---------------------------------------------------------------------
      1          6           0        0.000000    0.000000   -0.496871
      2          1           0        0.000000    0.000000   -1.566871
      3          7           0        0.000000    0.000000    0.649729
 ---------------------------------------------------------------------
                    Distance matrix (angstroms):
                    1          2          3
     1  C    0.000000
     2  H    1.070000   0.000000
     3  N    1.146600   2.216600   0.000000
 Symmetry turned off by external request.
 Stoichiometry    CHN
 Framework group  C*V[C*(HCN)]
 Deg. of freedom     2
 Full point group                 C*V     NOp   4
 Rotational constants (GHZ):           0.0000000          44.8885632          44.8885632
 Leave Link  202 at Wed Jun 15 18:22:18 2022, MaxMem=  6710886400 cpu:               0.2 elap:               0.1
 (Enter /home/software/gaussian/gdv/j19/gdv/l301.exe)
                         Coordinates in L301:                         
 ---------------------------------------------------------------------
 Center     Atomic      Atomic             Coordinates (Angstroms)
 Number     Number       Type             X           Y           Z
 ---------------------------------------------------------------------
      1          6           0        0.000000    0.000000   -0.496871
      2          1           0        0.000000    0.000000   -1.566871
      3          7           0        0.000000    0.000000    0.649729
 ---------------------------------------------------------------------
 Standard basis: CC-pVTZ (5D, 7F)
 FixB: optimizing general contractions.
 Ernie: Thresh=  0.10000D-02 Tol=  0.10000D-05 Strict=F.
 IA=     1 ShT= 0 ShC= 0 NL=   4 NS=   2.
         I=   1 JX=   1 NP=   8
         I=   2 JX=   2 NP=   8
         I=   3 JX=   3 NP=   1
         I=   4 JX=   4 NP=   1
 IA=     1 L=0 SC=0 ISt=    1 NBk=    2 NP=    8 IndPr=    0.
 DoElim1:  L=0 select primitive    2 from    2 using    1 C= 4.11D-03
 DoElim2:  L=0 select primitive    8 from    1 using    2 C= 5.97D-01
 Delete L=0 primitive    2 from    2 C=  5.67D-20.
 Delete L=0 primitive    1 from    2 C=  4.90D-07.
 Delete L=0 primitive    8 from    1 C=  1.83D-19.
 IA=     1 L=0 SC=0 ISt=    0 NBk=    0 NP=    0 IndPr=   13.
 IA=     1 ShT= 1 ShC= 1 NL=   3 NS=   2.
         I=   1 JX=   5 NP=   3
         I=   2 JX=   6 NP=   1
         I=   3 JX=   7 NP=   1
 IA=     1 L=1 SC=1 ISt=    0 NBk=    0 NP=    0 IndPr=    0.
 IA=     1 ShT= 2 ShC= 2 NL=   2 NS=   2.
         I=   1 JX=   8 NP=   1
         I=   2 JX=   9 NP=   1
 IA=     1 L=2 SC=2 ISt=    0 NBk=    0 NP=    0 IndPr=    0.
 IA=     1 ShT= 3 ShC= 3 NL=   1 NS=   1.
         I=   1 JX=   1 NP=   8
 IA=     1 L=3 SC=3 ISt=    0 NBk=    0 NP=    0 IndPr=    0.
 IA=     2 ShT= 0 ShC= 0 NL=   3 NS=   2.
         I=   1 JX=  11 NP=   3
         I=   2 JX=  12 NP=   1
         I=   3 JX=  13 NP=   1
 IA=     2 L=0 SC=0 ISt=    0 NBk=    0 NP=    0 IndPr=    0.
 IA=     2 ShT= 1 ShC= 1 NL=   2 NS=   2.
         I=   1 JX=  14 NP=   1
         I=   2 JX=  15 NP=   1
 IA=     2 L=1 SC=1 ISt=    0 NBk=    0 NP=    0 IndPr=    0.
 IA=     2 ShT= 2 ShC= 2 NL=   1 NS=   1.
         I=   1 JX=   1 NP=   8
 IA=     2 L=2 SC=2 ISt=    0 NBk=    0 NP=    0 IndPr=    0.
 IA=     3 ShT= 0 ShC= 0 NL=   4 NS=   2.
         I=   1 JX=  17 NP=   8
         I=   2 JX=  18 NP=   8
         I=   3 JX=  19 NP=   1
         I=   4 JX=  20 NP=   1
 IA=     3 L=0 SC=0 ISt=    1 NBk=    2 NP=    8 IndPr=    0.
 DoElim1:  L=0 select primitive    2 from    2 using    1 C= 4.04D-03
 DoElim2:  L=0 select primitive    8 from    1 using    2 C= 5.98D-01
 Delete L=0 primitive    2 from    2 C=  7.94D-21.
 Delete L=0 primitive    1 from    2 C=  7.19D-07.
 Delete L=0 primitive    8 from    1 C=  2.29D-19.
 IA=     3 L=0 SC=0 ISt=    0 NBk=    0 NP=    0 IndPr=   13.
 IA=     3 ShT= 1 ShC= 1 NL=   3 NS=   2.
         I=   1 JX=  21 NP=   3
         I=   2 JX=  22 NP=   1
         I=   3 JX=  23 NP=   1
 IA=     3 L=1 SC=1 ISt=    0 NBk=    0 NP=    0 IndPr=    0.
 IA=     3 ShT= 2 ShC= 2 NL=   2 NS=   2.
         I=   1 JX=  24 NP=   1
         I=   2 JX=  25 NP=   1
 IA=     3 L=2 SC=2 ISt=    0 NBk=    0 NP=    0 IndPr=    0.
 IA=     3 ShT= 3 ShC= 3 NL=   1 NS=   1.
         I=   1 JX=   1 NP=   8
 IA=     3 L=3 SC=3 ISt=    0 NBk=    0 NP=    0 IndPr=    0.
 Ernie:  6 primitive shells out of 60 were deleted.
    74 AO functions
 Electric field displacement of shell     1 is  0.00D+00
 Electric field displacement of shell     2 is  0.00D+00
 Electric field displacement of shell     3 is  0.00D+00
 Electric field displacement of shell     4 is  0.00D+00
 Electric field displacement of shell     5 is  0.00D+00
 Electric field displacement of shell     6 is  0.00D+00
 Electric field displacement of shell     7 is  0.00D+00
 Electric field displacement of shell     8 is  0.00D+00
 Electric field displacement of shell     9 is  0.00D+00
 Electric field displacement of shell    10 is  0.00D+00
 Electric field displacement of shell    11 is  0.00D+00
 Electric field displacement of shell    12 is  0.00D+00
 Electric field displacement of shell    13 is  0.00D+00
 Electric field displacement of shell    14 is  0.00D+00
 Electric field displacement of shell    15 is  0.00D+00
 Electric field displacement of shell    16 is  0.00D+00
 Electric field displacement of shell    17 is  0.00D+00
 Electric field displacement of shell    18 is  0.00D+00
 Electric field displacement of shell    19 is  0.00D+00
 Electric field displacement of shell    20 is  0.00D+00
 Electric field displacement of shell    21 is  0.00D+00
 Electric field displacement of shell    22 is  0.00D+00
 Electric field displacement of shell    23 is  0.00D+00
 Electric field displacement of shell    24 is  0.00D+00
 Electric field displacement of shell    25 is  0.00D+00
 Electric field displacement of shell    26 is  0.00D+00
 AO basis set in the form of general basis input (Overlap normalization):
      1 0
 S   7 1.00       0.000000000000
      0.8236000000D+04  0.5419783203D-03
      0.1235000000D+04  0.4192873817D-02
      0.2808000000D+03  0.2152216205D-01
      0.7927000000D+02  0.8353432195D-01
      0.2559000000D+02  0.2395828457D+00
      0.8997000000D+01  0.4428528419D+00
      0.3319000000D+01  0.3517995618D+00
 S   6 1.00       0.000000000000
      0.2808000000D+03 -0.5949224937D-04
      0.7927000000D+02 -0.1148158310D-02
      0.2559000000D+02 -0.1001913745D-01
      0.8997000000D+01 -0.6121949230D-01
      0.3319000000D+01 -0.1732698541D+00
      0.3643000000D+00  0.1072915192D+01
 S   1 1.00       0.000000000000
      0.9059000000D+00  0.1000000000D+01
 S   1 1.00       0.000000000000
      0.1285000000D+00  0.1000000000D+01
 P   3 1.00       0.000000000000
      0.1871000000D+02  0.3942638716D-01
      0.4133000000D+01  0.2440889849D+00
      0.1200000000D+01  0.8154920089D+00
 P   1 1.00       0.000000000000
      0.3827000000D+00  0.1000000000D+01
 P   1 1.00       0.000000000000
      0.1209000000D+00  0.1000000000D+01
 D   1 1.00       0.000000000000
      0.1097000000D+01  0.1000000000D+01
 D   1 1.00       0.000000000000
      0.3180000000D+00  0.1000000000D+01
 F   1 1.00       0.000000000000
      0.7610000000D+00  0.1000000000D+01
 ****
      2 0
 S   3 1.00       0.000000000000
      0.3387000000D+02  0.2549486323D-01
      0.5095000000D+01  0.1903627659D+00
      0.1159000000D+01  0.8521620222D+00
 S   1 1.00       0.000000000000
      0.3258000000D+00  0.1000000000D+01
 S   1 1.00       0.000000000000
      0.1027000000D+00  0.1000000000D+01
 P   1 1.00       0.000000000000
      0.1407000000D+01  0.1000000000D+01
 P   1 1.00       0.000000000000
      0.3880000000D+00  0.1000000000D+01
 D   1 1.00       0.000000000000
      0.1057000000D+01  0.1000000000D+01
 ****
      3 0
 S   7 1.00       0.000000000000
      0.1142000000D+05  0.5345638595D-03
      0.1712000000D+04  0.4134356596D-02
      0.3893000000D+03  0.2123353578D-01
      0.1100000000D+03  0.8250062241D-01
      0.3557000000D+02  0.2381388709D+00
      0.1254000000D+02  0.4425515469D+00
      0.4644000000D+01  0.3537574220D+00
 S   6 1.00       0.000000000000
      0.3893000000D+03 -0.4898673501D-04
      0.1100000000D+03 -0.1195273230D-02
      0.3557000000D+02 -0.1034907144D-01
      0.1254000000D+02 -0.6486801896D-01
      0.4644000000D+01 -0.1715524774D+00
      0.5118000000D+00  0.1072895678D+01
 S   1 1.00       0.000000000000
      0.1293000000D+01  0.1000000000D+01
 S   1 1.00       0.000000000000
      0.1787000000D+00  0.1000000000D+01
 P   3 1.00       0.000000000000
      0.2663000000D+02  0.3980721230D-01
      0.5948000000D+01  0.2490026605D+00
      0.1742000000D+01  0.8104797267D+00
 P   1 1.00       0.000000000000
      0.5550000000D+00  0.1000000000D+01
 P   1 1.00       0.000000000000
      0.1725000000D+00  0.1000000000D+01
 D   1 1.00       0.000000000000
      0.1654000000D+01  0.1000000000D+01
 D   1 1.00       0.000000000000
      0.4690000000D+00  0.1000000000D+01
 F   1 1.00       0.000000000000
      0.1093000000D+01  0.1000000000D+01
 ****
  
 LdAtmC:  AtmChg=     6.000000     1.000000     7.000000
 AtDip 
                 1             2             3 
      1   0.000000D+00  0.000000D+00  0.000000D+00
      2   0.000000D+00  0.000000D+00  0.000000D+00
      3   0.000000D+00  0.000000D+00  0.000000D+00
 AtQua 
                 1             2             3             4             5 
      1   0.000000D+00  0.000000D+00  0.000000D+00  0.000000D+00  0.000000D+00
      2   0.000000D+00  0.000000D+00  0.000000D+00  0.000000D+00  0.000000D+00
      3   0.000000D+00  0.000000D+00  0.000000D+00  0.000000D+00  0.000000D+00
                 6 
      1   0.000000D+00
      2   0.000000D+00
      3   0.000000D+00
 AtPol 
                 1 
      1   0.000000D+00
      2   0.000000D+00
      3   0.000000D+00
 GetPMM: IRwPM=    824 LRwPM=      0 LPMAll=      2
 General NEO basis read from cards:  (5D, 7F)
 Centers:       2
 S 1 1.00
     Exponent=  3.1997000000D+01 Coefficients=  1.0000000000D+00
 S 1 1.00
     Exponent=  1.6010000000D+01 Coefficients=  1.0000000000D+00
 S 1 1.00
     Exponent=  8.7340000000D+00 Coefficients=  1.0000000000D+00
 S 1 1.00
     Exponent=  1.9570000000D+00 Coefficients=  1.0000000000D+00
 P 1 1.00
     Exponent=  2.4028000000D+01 Coefficients=  1.0000000000D+00
 P 1 1.00
     Exponent=  1.3795000000D+01 Coefficients=  1.0000000000D+00
 P 1 1.00
     Exponent=  9.4380000000D+00 Coefficients=  1.0000000000D+00
 D 1 1.00
     Exponent=  1.9016000000D+01 Coefficients=  1.0000000000D+00
 D 1 1.00
     Exponent=  1.0524000000D+01 Coefficients=  1.0000000000D+00
 ****
    23 NEO functions
 Electric field displacement of shell     1 is  0.00D+00
 Electric field displacement of shell     2 is  0.00D+00
 Electric field displacement of shell     3 is  0.00D+00
 Electric field displacement of shell     4 is  0.00D+00
 Electric field displacement of shell     5 is  0.00D+00
 Electric field displacement of shell     6 is  0.00D+00
 Electric field displacement of shell     7 is  0.00D+00
 Electric field displacement of shell     8 is  0.00D+00
 Electric field displacement of shell     9 is  0.00D+00
 NEO basis set in the form of general basis input (Overlap normalization):
      2 0
 S   1 1.00       0.000000000000
      0.3199700000D+02  0.1000000000D+01
 S   1 1.00       0.000000000000
      0.1601000000D+02  0.1000000000D+01
 S   1 1.00       0.000000000000
      0.8734000000D+01  0.1000000000D+01
 S   1 1.00       0.000000000000
      0.1957000000D+01  0.1000000000D+01
 P   1 1.00       0.000000000000
      0.2402800000D+02  0.1000000000D+01
 P   1 1.00       0.000000000000
      0.1379500000D+02  0.1000000000D+01
 P   1 1.00       0.000000000000
      0.9438000000D+01  0.1000000000D+01
 D   1 1.00       0.000000000000
      0.1901600000D+02  0.1000000000D+01
 D   1 1.00       0.000000000000
      0.1052400000D+02  0.1000000000D+01
 ****
  
 Using NEO mass 1836.152656 electrons.
 AtZEff=     -3.6000000     -1.0000000     -4.5500000
    74 basis functions,   121 primitive gaussians,    25 cartesian basis functions
     7 alpha electrons        7 beta electrons
       nuclear repulsion energy        19.3837806198 Hartrees.
 IS=     1 IAt=     1 ISR=     1 T=0 IP=      1 IndIP=      1 IndIPD=      0 C=  3.339483D-01  0.000000D+00                             NZ=T
 IS=     1 IAt=     1 ISR=     1 T=0 IP=      2 IndIP=      2 IndIPD=      1 C=  6.225469D-01  0.000000D+00                             NZ=T
 IS=     1 IAt=     1 ISR=     1 T=0 IP=      3 IndIP=      3 IndIPD=      2 C=  1.052189D+00  0.000000D+00                             NZ=T
 IS=     1 IAt=     1 ISR=     1 T=0 IP=      4 IndIP=      4 IndIPD=      3 C=  1.581637D+00  0.000000D+00                             NZ=T
 IS=     1 IAt=     1 ISR=     1 T=0 IP=      5 IndIP=      5 IndIPD=      4 C=  1.942757D+00  0.000000D+00                             NZ=T
 IS=     1 IAt=     1 ISR=     1 T=0 IP=      6 IndIP=      6 IndIPD=      5 C=  1.639619D+00  0.000000D+00                             NZ=T
 IS=     1 IAt=     1 ISR=     1 T=0 IP=      7 IndIP=      7 IndIPD=      6 C=  6.165394D-01  0.000000D+00                             NZ=T
 IS=     2 IAt=     1 ISR=     2 T=0 IP=      1 IndIP=      8 IndIPD=      0 C= -2.908495D-03  0.000000D+00                             NZ=T
 IS=     2 IAt=     1 ISR=     2 T=0 IP=      2 IndIP=      9 IndIPD=      1 C= -2.173920D-02  0.000000D+00                             NZ=T
 IS=     2 IAt=     1 ISR=     2 T=0 IP=      3 IndIP=     10 IndIPD=      2 C= -8.124434D-02  0.000000D+00                             NZ=T
 IS=     2 IAt=     1 ISR=     2 T=0 IP=      4 IndIP=     11 IndIPD=      3 C= -2.266591D-01  0.000000D+00                             NZ=T
 IS=     2 IAt=     1 ISR=     2 T=0 IP=      5 IndIP=     12 IndIPD=      4 C= -3.036607D-01  0.000000D+00                             NZ=T
 IS=     2 IAt=     1 ISR=     2 T=0 IP=      6 IndIP=     13 IndIPD=      5 C=  3.585666D-01  0.000000D+00                             NZ=T
 IS=     3 IAt=     1 ISR=     3 T=0 IP=      1 IndIP=     14 IndIPD=      0 C=  6.617901D-01  0.000000D+00                             NZ=T
 IS=     4 IAt=     1 ISR=     4 T=0 IP=      1 IndIP=     15 IndIPD=      0 C=  1.529634D-01  0.000000D+00                             NZ=T
 IS=     5 IAt=     1 ISR=     5 T=1 IP=      1 IndIP=     16 IndIPD=      0 C=  0.000000D+00  2.186852D+00                             NZ=T
 IS=     5 IAt=     1 ISR=     5 T=1 IP=      2 IndIP=     17 IndIPD=      1 C=  0.000000D+00  2.050312D+00                             NZ=T
 IS=     5 IAt=     1 ISR=     5 T=1 IP=      3 IndIP=     18 IndIPD=      2 C=  0.000000D+00  1.459945D+00                             NZ=T
 IS=     6 IAt=     1 ISR=     6 T=1 IP=      1 IndIP=     19 IndIPD=      0 C=  0.000000D+00  4.290552D-01                             NZ=T
 IS=     7 IAt=     1 ISR=     7 T=1 IP=      1 IndIP=     20 IndIPD=      0 C=  0.000000D+00  1.016185D-01                             NZ=T
 IS=     8 IAt=     1 ISR=     8 T=2 IP=      1 IndIP=     21 IndIPD=      1 C=  0.000000D+00  0.000000D+00  1.935401D+00  0.000000D+00 NZ=T
 IS=     9 IAt=     1 ISR=     9 T=2 IP=      1 IndIP=     22 IndIPD=      2 C=  0.000000D+00  0.000000D+00  2.216445D-01  0.000000D+00 NZ=T
 IS=    10 IAt=     1 ISR=    10 T=3 IP=      1 IndIP=     23 IndIPD=      3 C=  0.000000D+00  0.000000D+00  0.000000D+00  7.962876D-01 NZ=T
 IS=    11 IAt=     2 ISR=     1 T=0 IP=      1 IndIP=     24 IndIPD=      0 C=  2.551081D-01  0.000000D+00                             NZ=T
 IS=    11 IAt=     2 ISR=     1 T=0 IP=      2 IndIP=     25 IndIPD=      1 C=  4.600979D-01  0.000000D+00                             NZ=T
 IS=    11 IAt=     2 ISR=     1 T=0 IP=      3 IndIP=     26 IndIPD=      2 C=  6.784141D-01  0.000000D+00                             NZ=T
 IS=    12 IAt=     2 ISR=     2 T=0 IP=      1 IndIP=     27 IndIPD=      0 C=  3.073431D-01  0.000000D+00                             NZ=T
 IS=    13 IAt=     2 ISR=     3 T=0 IP=      1 IndIP=     28 IndIPD=      0 C=  1.292968D-01  0.000000D+00                             NZ=T
 IS=    14 IAt=     2 ISR=     4 T=1 IP=      1 IndIP=     29 IndIPD=      0 C=  0.000000D+00  2.184277D+00                             NZ=T
 IS=    15 IAt=     2 ISR=     5 T=1 IP=      1 IndIP=     30 IndIPD=      0 C=  0.000000D+00  4.364955D-01                             NZ=T
 IS=    16 IAt=     2 ISR=     6 T=2 IP=      1 IndIP=     31 IndIPD=      4 C=  0.000000D+00  0.000000D+00  1.813597D+00  0.000000D+00 NZ=T
 IS=    17 IAt=     3 ISR=     1 T=0 IP=      1 IndIP=     32 IndIPD=      0 C=  4.208809D-01  0.000000D+00                             NZ=T
 IS=    17 IAt=     3 ISR=     1 T=0 IP=      2 IndIP=     33 IndIPD=      1 C=  7.842343D-01  0.000000D+00                             NZ=T
 IS=    17 IAt=     3 ISR=     1 T=0 IP=      3 IndIP=     34 IndIPD=      2 C=  1.326312D+00  0.000000D+00                             NZ=T
 IS=    17 IAt=     3 ISR=     1 T=0 IP=      4 IndIP=     35 IndIPD=      3 C=  1.997155D+00  0.000000D+00                             NZ=T
 IS=    17 IAt=     3 ISR=     1 T=0 IP=      5 IndIP=     36 IndIPD=      4 C=  2.472027D+00  0.000000D+00                             NZ=T
 IS=    17 IAt=     3 ISR=     1 T=0 IP=      6 IndIP=     37 IndIPD=      5 C=  2.101828D+00  0.000000D+00                             NZ=T
 IS=    17 IAt=     3 ISR=     1 T=0 IP=      7 IndIP=     38 IndIPD=      6 C=  7.975994D-01  0.000000D+00                             NZ=T
 IS=    18 IAt=     3 ISR=     2 T=0 IP=      1 IndIP=     39 IndIPD=      0 C= -3.059862D-03  0.000000D+00                             NZ=T
 IS=    18 IAt=     3 ISR=     2 T=0 IP=      2 IndIP=     40 IndIPD=      1 C= -2.893489D-02  0.000000D+00                             NZ=T
 IS=    18 IAt=     3 ISR=     2 T=0 IP=      3 IndIP=     41 IndIPD=      2 C= -1.074297D-01  0.000000D+00                             NZ=T
 IS=    18 IAt=     3 ISR=     2 T=0 IP=      4 IndIP=     42 IndIPD=      3 C= -3.080803D-01  0.000000D+00                             NZ=T
 IS=    18 IAt=     3 ISR=     2 T=0 IP=      5 IndIP=     43 IndIPD=      4 C= -3.867909D-01  0.000000D+00                             NZ=T
 IS=    18 IAt=     3 ISR=     2 T=0 IP=      6 IndIP=     44 IndIPD=      5 C=  4.626929D-01  0.000000D+00                             NZ=T
 IS=    19 IAt=     3 ISR=     3 T=0 IP=      1 IndIP=     45 IndIPD=      0 C=  8.641895D-01  0.000000D+00                             NZ=T
 IS=    20 IAt=     3 ISR=     4 T=0 IP=      1 IndIP=     46 IndIPD=      0 C=  1.958860D-01  0.000000D+00                             NZ=T
 IS=    21 IAt=     3 ISR=     5 T=1 IP=      1 IndIP=     47 IndIPD=      0 C=  0.000000D+00  3.432542D+00                             NZ=T
 IS=    21 IAt=     3 ISR=     5 T=1 IP=      2 IndIP=     48 IndIPD=      1 C=  0.000000D+00  3.296915D+00                             NZ=T
 IS=    21 IAt=     3 ISR=     5 T=1 IP=      3 IndIP=     49 IndIPD=      2 C=  0.000000D+00  2.312025D+00                             NZ=T
 IS=    22 IAt=     3 ISR=     6 T=1 IP=      1 IndIP=     50 IndIPD=      0 C=  0.000000D+00  6.828201D-01                             NZ=T
 IS=    23 IAt=     3 ISR=     7 T=1 IP=      1 IndIP=     51 IndIPD=      0 C=  0.000000D+00  1.584625D-01                             NZ=T
 IS=    24 IAt=     3 ISR=     8 T=2 IP=      1 IndIP=     52 IndIPD=      5 C=  0.000000D+00  0.000000D+00  3.970513D+00  0.000000D+00 NZ=T
 IS=    25 IAt=     3 ISR=     9 T=2 IP=      1 IndIP=     53 IndIPD=      6 C=  0.000000D+00  0.000000D+00  4.374838D-01  0.000000D+00 NZ=T
 IS=    26 IAt=     3 ISR=    10 T=3 IP=      1 IndIP=     54 IndIPD=      7 C=  0.000000D+00  0.000000D+00  0.000000D+00  1.798249D+00 NZ=T
 IExCor=         0 DFT=F Ex=HF Corr=None N6=None ScaHFX=  1.000000
 ScaDFX=  1.000000  1.000000  1.000000  1.000000  1.000000  0.000000
 ScaDFX=  0.000000  0.000000  0.000000  0.000000  0.000000  0.000000
 IRadAn=      5 IRanWt=     -1 IRanGd=            0 ICorTp=0 IEmpDi=  4
 NAtoms=    3 NActive=    3 NUniq=    3 SFac= 1.00D+00 NAtFMM=   60 NAOKFM=F Big=F
 Integral buffers will be    131072 words long.
 Raffenetti 1 integral format.
 Two-electron integral symmetry is turned off.
 AtDip 
                 1             2             3 
      1   0.000000D+00  0.000000D+00  0.000000D+00
      2   0.000000D+00  0.000000D+00  0.000000D+00
      3   0.000000D+00  0.000000D+00  0.000000D+00
 AtQua 
                 1             2             3             4             5 
      1   0.000000D+00  0.000000D+00  0.000000D+00  0.000000D+00  0.000000D+00
      2   0.000000D+00  0.000000D+00  0.000000D+00  0.000000D+00  0.000000D+00
      3   0.000000D+00  0.000000D+00  0.000000D+00  0.000000D+00  0.000000D+00
                 6 
      1   0.000000D+00
      2   0.000000D+00
      3   0.000000D+00
 AtPol 
                 1 
      1   0.000000D+00
      2   0.000000D+00
      3   0.000000D+00
 Pair potential:
 Leave Link  301 at Wed Jun 15 18:22:18 2022, MaxMem=  6710886400 cpu:               0.4 elap:               0.4
 (Enter /home/software/gaussian/gdv/j19/gdv/l302.exe)
 GetPMM: IRwPM=    824 LRwPM=      0 LPMAll=      2
 AtDip 
                 1             2             3 
      1   0.000000D+00  0.000000D+00  0.000000D+00
      2   0.000000D+00  0.000000D+00  0.000000D+00
      3   0.000000D+00  0.000000D+00  0.000000D+00
 AtQua 
                 1             2             3             4             5 
      1   0.000000D+00  0.000000D+00  0.000000D+00  0.000000D+00  0.000000D+00
      2   0.000000D+00  0.000000D+00  0.000000D+00  0.000000D+00  0.000000D+00
      3   0.000000D+00  0.000000D+00  0.000000D+00  0.000000D+00  0.000000D+00
                 6 
      1   0.000000D+00
      2   0.000000D+00
      3   0.000000D+00
 AtPol 
                 1 
      1   0.000000D+00
      2   0.000000D+00
      3   0.000000D+00
 NPDir=0 NMtPBC=     1 NCelOv=     1 NCel=       1 NClECP=     1 NCelD=      1
         NCelK=      1 NCelE2=     1 NClLst=     1 CellRange=     0.0.
 One-electron integrals computed using PRISM.
 Entering OneElI...
 OneElI was handed  6710878592 working-precision words.
 Calculate overlap and kinetic energy integrals
    NBasis =  23  MinDer = 0  MaxDer = 0
 Requested accuracy = 0.1000D-12
 ShPair: Thresh= 1.00D-13 NBox=     0 BxSize= 0.00D+00 RnKept= 0.00D+00
         NSMCal=                   45 NSMKep=                  45
 PrSmSu:  IncTry=   512 NBBP=             45 NTPThr=   100 NPartT=    1 Incr=           1 LDynOK=F GPUOK=F.
 PrsmSu:  NPrtUS=   1 ThrOK=F IAlg=2 LenDen=           0 ISkipM=0 DoSpLW=F IThBeg=    0 IThEnd=    0.
 Prism:   IPart=     0 DynPar=F LinDyn=F Incr=           1.
 PRISM was handed  6710875354 working-precision words and    45 shell-pairs
 IPart=  0 NShTot=          45 NBatch=           6 AvBLen=         7.5
 PrsmSu-ThDecC:  IPartSL=    0    0 NPrtUSL=    1    1 IThBeg=    0 IThEnd=    0 CPU=   -1 GPU=   -1 NThAct=    0.
 PrSmSu:  NxtVal=              2.
 *** NEO Overlap *** 
                1             2             3             4             5 
      1  0.100000D+01
      2  0.915616D+00  0.100000D+01
      3  0.743702D+00  0.934423D+00  0.100000D+01
      4  0.318225D+00  0.491834D+00  0.680175D+00  0.100000D+01
      5  0.000000D+00  0.000000D+00  0.000000D+00  0.000000D+00  0.100000D+01
      6  0.000000D+00  0.000000D+00  0.000000D+00  0.000000D+00  0.000000D+00
      7  0.000000D+00  0.000000D+00  0.000000D+00  0.000000D+00  0.000000D+00
      8  0.000000D+00  0.000000D+00  0.000000D+00  0.000000D+00  0.909357D+00
      9  0.000000D+00  0.000000D+00  0.000000D+00  0.000000D+00  0.000000D+00
     10  0.000000D+00  0.000000D+00  0.000000D+00  0.000000D+00  0.000000D+00
     11  0.000000D+00  0.000000D+00  0.000000D+00  0.000000D+00  0.768356D+00
     12  0.000000D+00  0.000000D+00  0.000000D+00  0.000000D+00  0.000000D+00
     13  0.000000D+00  0.000000D+00  0.000000D+00  0.000000D+00  0.000000D+00
     14  0.000000D+00  0.000000D+00  0.000000D+00  0.000000D+00  0.000000D+00
     15  0.000000D+00  0.000000D+00  0.000000D+00  0.000000D+00  0.000000D+00
     16  0.000000D+00  0.000000D+00  0.000000D+00  0.000000D+00  0.000000D+00
     17  0.000000D+00  0.000000D+00  0.000000D+00  0.000000D+00  0.000000D+00
     18  0.000000D+00  0.000000D+00  0.000000D+00  0.000000D+00  0.000000D+00
     19  0.000000D+00  0.000000D+00  0.000000D+00  0.000000D+00  0.000000D+00
     20  0.000000D+00  0.000000D+00  0.000000D+00  0.000000D+00  0.000000D+00
     21  0.000000D+00  0.000000D+00  0.000000D+00  0.000000D+00  0.000000D+00
     22  0.000000D+00  0.000000D+00  0.000000D+00  0.000000D+00  0.000000D+00
     23  0.000000D+00  0.000000D+00  0.000000D+00  0.000000D+00  0.000000D+00
                6             7             8             9            10 
      6  0.100000D+01
      7  0.000000D+00  0.100000D+01
      8  0.000000D+00  0.000000D+00  0.100000D+01
      9  0.909357D+00  0.000000D+00  0.000000D+00  0.100000D+01
     10  0.000000D+00  0.909357D+00  0.000000D+00  0.000000D+00  0.100000D+01
     11  0.000000D+00  0.000000D+00  0.956233D+00  0.000000D+00  0.000000D+00
     12  0.768356D+00  0.000000D+00  0.000000D+00  0.956233D+00  0.000000D+00
     13  0.000000D+00  0.768356D+00  0.000000D+00  0.000000D+00  0.956233D+00
     14  0.000000D+00  0.000000D+00  0.000000D+00  0.000000D+00  0.000000D+00
     15  0.000000D+00  0.000000D+00  0.000000D+00  0.000000D+00  0.000000D+00
     16  0.000000D+00  0.000000D+00  0.000000D+00  0.000000D+00  0.000000D+00
     17  0.000000D+00  0.000000D+00  0.000000D+00  0.000000D+00  0.000000D+00
     18  0.000000D+00  0.000000D+00  0.000000D+00  0.000000D+00  0.000000D+00
     19  0.000000D+00  0.000000D+00  0.000000D+00  0.000000D+00  0.000000D+00
     20  0.000000D+00  0.000000D+00  0.000000D+00  0.000000D+00  0.000000D+00
     21  0.000000D+00  0.000000D+00  0.000000D+00  0.000000D+00  0.000000D+00
     22  0.000000D+00  0.000000D+00  0.000000D+00  0.000000D+00  0.000000D+00
     23  0.000000D+00  0.000000D+00  0.000000D+00  0.000000D+00  0.000000D+00
               11            12            13            14            15 
     11  0.100000D+01
     12  0.000000D+00  0.100000D+01
     13  0.000000D+00  0.000000D+00  0.100000D+01
     14  0.000000D+00  0.000000D+00  0.000000D+00  0.100000D+01
     15  0.000000D+00  0.000000D+00  0.000000D+00  0.000000D+00  0.100000D+01
     16  0.000000D+00  0.000000D+00  0.000000D+00  0.000000D+00  0.000000D+00
     17  0.000000D+00  0.000000D+00  0.000000D+00  0.000000D+00  0.000000D+00
     18  0.000000D+00  0.000000D+00  0.000000D+00  0.000000D+00  0.000000D+00
     19  0.000000D+00  0.000000D+00  0.000000D+00  0.859891D+00  0.000000D+00
     20  0.000000D+00  0.000000D+00  0.000000D+00  0.000000D+00  0.859891D+00
     21  0.000000D+00  0.000000D+00  0.000000D+00  0.000000D+00  0.000000D+00
     22  0.000000D+00  0.000000D+00  0.000000D+00  0.000000D+00  0.000000D+00
     23  0.000000D+00  0.000000D+00  0.000000D+00  0.000000D+00  0.000000D+00
               16            17            18            19            20 
     16  0.100000D+01
     17  0.000000D+00  0.100000D+01
     18  0.000000D+00  0.000000D+00  0.100000D+01
     19  0.000000D+00  0.000000D+00  0.000000D+00  0.100000D+01
     20  0.000000D+00  0.000000D+00  0.000000D+00  0.000000D+00  0.100000D+01
     21  0.859891D+00  0.000000D+00  0.000000D+00  0.000000D+00  0.000000D+00
     22  0.000000D+00  0.859891D+00  0.000000D+00  0.000000D+00  0.000000D+00
     23  0.000000D+00  0.000000D+00  0.859891D+00  0.000000D+00  0.000000D+00
               21            22            23 
     21  0.100000D+01
     22  0.000000D+00  0.100000D+01
     23  0.000000D+00  0.000000D+00  0.100000D+01
 *** NEO Kinetic Energy *** 
                1             2             3             4             5 
      1  0.261392D-01
      2  0.159633D-01  0.130790D-01
      3  0.833699D-02  0.862761D-02  0.713503D-02
      4  0.958860D-03  0.140132D-02  0.177672D-02  0.159872D-02
      5  0.000000D+00  0.000000D+00  0.000000D+00  0.000000D+00  0.327151D-01
      6  0.000000D+00  0.000000D+00  0.000000D+00  0.000000D+00  0.000000D+00
      7  0.000000D+00  0.000000D+00  0.000000D+00  0.000000D+00  0.000000D+00
      8  0.000000D+00  0.000000D+00  0.000000D+00  0.000000D+00  0.217010D-01
      9  0.000000D+00  0.000000D+00  0.000000D+00  0.000000D+00  0.000000D+00
     10  0.000000D+00  0.000000D+00  0.000000D+00  0.000000D+00  0.000000D+00
     11  0.000000D+00  0.000000D+00  0.000000D+00  0.000000D+00  0.141781D-01
     12  0.000000D+00  0.000000D+00  0.000000D+00  0.000000D+00  0.000000D+00
     13  0.000000D+00  0.000000D+00  0.000000D+00  0.000000D+00  0.000000D+00
     14  0.000000D+00  0.000000D+00  0.000000D+00  0.000000D+00  0.000000D+00
     15  0.000000D+00  0.000000D+00  0.000000D+00  0.000000D+00  0.000000D+00
     16  0.000000D+00  0.000000D+00  0.000000D+00  0.000000D+00  0.000000D+00
     17  0.000000D+00  0.000000D+00  0.000000D+00  0.000000D+00  0.000000D+00
     18  0.000000D+00  0.000000D+00  0.000000D+00  0.000000D+00  0.000000D+00
     19  0.000000D+00  0.000000D+00  0.000000D+00  0.000000D+00  0.000000D+00
     20  0.000000D+00  0.000000D+00  0.000000D+00  0.000000D+00  0.000000D+00
     21  0.000000D+00  0.000000D+00  0.000000D+00  0.000000D+00  0.000000D+00
     22  0.000000D+00  0.000000D+00  0.000000D+00  0.000000D+00  0.000000D+00
     23  0.000000D+00  0.000000D+00  0.000000D+00  0.000000D+00  0.000000D+00
                6             7             8             9            10 
      6  0.327151D-01
      7  0.000000D+00  0.327151D-01
      8  0.000000D+00  0.000000D+00  0.187825D-01
      9  0.217010D-01  0.000000D+00  0.000000D+00  0.187825D-01
     10  0.000000D+00  0.217010D-01  0.000000D+00  0.000000D+00  0.187825D-01
     11  0.000000D+00  0.000000D+00  0.145922D-01  0.000000D+00  0.000000D+00
     12  0.141781D-01  0.000000D+00  0.000000D+00  0.145922D-01  0.000000D+00
     13  0.000000D+00  0.141781D-01  0.000000D+00  0.000000D+00  0.145922D-01
     14  0.000000D+00  0.000000D+00  0.000000D+00  0.000000D+00  0.000000D+00
     15  0.000000D+00  0.000000D+00  0.000000D+00  0.000000D+00  0.000000D+00
     16  0.000000D+00  0.000000D+00  0.000000D+00  0.000000D+00  0.000000D+00
     17  0.000000D+00  0.000000D+00  0.000000D+00  0.000000D+00  0.000000D+00
     18  0.000000D+00  0.000000D+00  0.000000D+00  0.000000D+00  0.000000D+00
     19  0.000000D+00  0.000000D+00  0.000000D+00  0.000000D+00  0.000000D+00
     20  0.000000D+00  0.000000D+00  0.000000D+00  0.000000D+00  0.000000D+00
     21  0.000000D+00  0.000000D+00  0.000000D+00  0.000000D+00  0.000000D+00
     22  0.000000D+00  0.000000D+00  0.000000D+00  0.000000D+00  0.000000D+00
     23  0.000000D+00  0.000000D+00  0.000000D+00  0.000000D+00  0.000000D+00
               11            12            13            14            15 
     11  0.128502D-01
     12  0.000000D+00  0.128502D-01
     13  0.000000D+00  0.000000D+00  0.128502D-01
     14  0.000000D+00  0.000000D+00  0.000000D+00  0.362475D-01
     15  0.000000D+00  0.000000D+00  0.000000D+00  0.000000D+00  0.362475D-01
     16  0.000000D+00  0.000000D+00  0.000000D+00  0.000000D+00  0.000000D+00
     17  0.000000D+00  0.000000D+00  0.000000D+00  0.000000D+00  0.000000D+00
     18  0.000000D+00  0.000000D+00  0.000000D+00  0.000000D+00  0.000000D+00
     19  0.000000D+00  0.000000D+00  0.000000D+00  0.222086D-01  0.000000D+00
     20  0.000000D+00  0.000000D+00  0.000000D+00  0.000000D+00  0.222086D-01
     21  0.000000D+00  0.000000D+00  0.000000D+00  0.000000D+00  0.000000D+00
     22  0.000000D+00  0.000000D+00  0.000000D+00  0.000000D+00  0.000000D+00
     23  0.000000D+00  0.000000D+00  0.000000D+00  0.000000D+00  0.000000D+00
               16            17            18            19            20 
     16  0.362475D-01
     17  0.000000D+00  0.362475D-01
     18  0.000000D+00  0.000000D+00  0.362475D-01
     19  0.000000D+00  0.000000D+00  0.000000D+00  0.200604D-01
     20  0.000000D+00  0.000000D+00  0.000000D+00  0.000000D+00  0.200604D-01
     21  0.222086D-01  0.000000D+00  0.000000D+00  0.000000D+00  0.000000D+00
     22  0.000000D+00  0.222086D-01  0.000000D+00  0.000000D+00  0.000000D+00
     23  0.000000D+00  0.000000D+00  0.222086D-01  0.000000D+00  0.000000D+00
               21            22            23 
     21  0.200604D-01
     22  0.000000D+00  0.200604D-01
     23  0.000000D+00  0.000000D+00  0.200604D-01
 Entering OneElI...
 OneElI was handed  6710878592 working-precision words.
 Calculate potential energy integrals
    NBasis =  23  MinDer = 0  MaxDer = 0
 Requested accuracy = 0.1000D-12
 ShPair: Thresh= 1.00D-13 NBox=     0 BxSize= 0.00D+00 RnKept= 0.00D+00
         NSMCal=                   45 NSMKep=                  45
 PrSmSu:  IncTry=   512 NBBP=            135 NTPThr=   100 NPartT=    1 Incr=           1 LDynOK=F GPUOK=F.
 PrsmSu:  NPrtUS=   1 ThrOK=F IAlg=2 LenDen=           0 ISkipM=0 DoSpLW=F IThBeg=    0 IThEnd=    0.
 Prism:   IPart=     0 DynPar=F LinDyn=F Incr=           1.
 PRISM was handed  6710875264 working-precision words and    45 shell-pairs
 IPart=  0 NShTot=         135 NBatch=          45 AvBLen=         3.0
 PrsmSu-ThDecC:  IPartSL=    0    0 NPrtUSL=    1    1 IThBeg=    0 IThEnd=    0 CPU=   -1 GPU=   -1 NThAct=   -1.
 PrSmSu:  NxtVal=              2.
 ***** NEO Potential Energy ***** 
                1             2             3             4             5 
      1  0.463849D+01
      2  0.424707D+01  0.463849D+01
      3  0.344965D+01  0.433431D+01  0.463849D+01
      4  0.147608D+01  0.228136D+01  0.315498D+01  0.463848D+01
      5  0.000000D+00  0.000000D+00  0.000000D+00  0.000000D+00  0.462994D+01
      6  0.000000D+00  0.000000D+00  0.000000D+00  0.000000D+00  0.000000D+00
      7  0.160821D+00  0.221605D+00  0.232247D+00  0.135006D+00  0.000000D+00
      8  0.000000D+00  0.000000D+00  0.000000D+00  0.000000D+00  0.420817D+01
      9  0.000000D+00  0.000000D+00  0.000000D+00  0.000000D+00  0.000000D+00
     10  0.133070D+00  0.231628D+00  0.295989D+00  0.235817D+00  0.000000D+00
     11  0.000000D+00  0.000000D+00  0.000000D+00  0.000000D+00  0.355458D+01
     12  0.000000D+00  0.000000D+00  0.000000D+00  0.000000D+00  0.000000D+00
     13  0.106312D+00  0.213958D+00  0.315190D+00  0.329668D+00  0.000000D+00
     14  0.988252D-02  0.219202D-01  0.314346D-01  0.272772D-01  0.000000D+00
     15  0.000000D+00  0.000000D+00  0.000000D+00  0.000000D+00  0.184567D+00
     16  0.000000D+00  0.000000D+00  0.000000D+00  0.000000D+00  0.000000D+00
     17  0.000000D+00  0.000000D+00  0.000000D+00  0.000000D+00  0.000000D+00
     18  0.000000D+00  0.000000D+00  0.000000D+00  0.000000D+00  0.000000D+00
     19  0.663738D-02  0.205712D-01  0.400910D-01  0.595795D-01  0.000000D+00
     20  0.000000D+00  0.000000D+00  0.000000D+00  0.000000D+00  0.141183D+00
     21  0.000000D+00  0.000000D+00  0.000000D+00  0.000000D+00  0.000000D+00
     22  0.000000D+00  0.000000D+00  0.000000D+00  0.000000D+00  0.000000D+00
     23  0.000000D+00  0.000000D+00  0.000000D+00  0.000000D+00  0.000000D+00
                6             7             8             9            10 
      6  0.462994D+01
      7  0.000000D+00  0.465557D+01
      8  0.000000D+00  0.000000D+00  0.462361D+01
      9  0.420817D+01  0.000000D+00  0.000000D+00  0.462361D+01
     10  0.000000D+00  0.423778D+01  0.000000D+00  0.000000D+00  0.466824D+01
     11  0.000000D+00  0.000000D+00  0.441858D+01  0.000000D+00  0.000000D+00
     12  0.355458D+01  0.000000D+00  0.000000D+00  0.441858D+01  0.000000D+00
     13  0.000000D+00  0.358286D+01  0.000000D+00  0.000000D+00  0.446927D+01
     14  0.000000D+00  0.216944D+00  0.000000D+00  0.000000D+00  0.281293D+00
     15  0.000000D+00  0.000000D+00  0.237992D+00  0.000000D+00  0.000000D+00
     16  0.184567D+00  0.000000D+00  0.000000D+00  0.237992D+00  0.000000D+00
     17  0.000000D+00  0.000000D+00  0.000000D+00  0.000000D+00  0.000000D+00
     18  0.000000D+00  0.000000D+00  0.000000D+00  0.000000D+00  0.000000D+00
     19  0.000000D+00  0.166675D+00  0.000000D+00  0.000000D+00  0.286330D+00
     20  0.000000D+00  0.000000D+00  0.240295D+00  0.000000D+00  0.000000D+00
     21  0.141183D+00  0.000000D+00  0.000000D+00  0.240295D+00  0.000000D+00
     22  0.000000D+00  0.000000D+00  0.000000D+00  0.000000D+00  0.000000D+00
     23  0.000000D+00  0.000000D+00  0.000000D+00  0.000000D+00  0.000000D+00
               11            12            13            14            15 
     11  0.461674D+01
     12  0.000000D+00  0.461674D+01
     13  0.000000D+00  0.000000D+00  0.468198D+01
     14  0.000000D+00  0.000000D+00  0.288796D+00  0.466064D+01
     15  0.243472D+00  0.000000D+00  0.000000D+00  0.000000D+00  0.464890D+01
     16  0.000000D+00  0.243472D+00  0.000000D+00  0.000000D+00  0.000000D+00
     17  0.000000D+00  0.000000D+00  0.000000D+00  0.000000D+00  0.000000D+00
     18  0.000000D+00  0.000000D+00  0.000000D+00  0.000000D+00  0.000000D+00
     19  0.000000D+00  0.000000D+00  0.356999D+00  0.401330D+01  0.000000D+00
     20  0.297561D+00  0.000000D+00  0.000000D+00  0.000000D+00  0.400000D+01
     21  0.000000D+00  0.297561D+00  0.000000D+00  0.000000D+00  0.000000D+00
     22  0.000000D+00  0.000000D+00  0.000000D+00  0.000000D+00  0.000000D+00
     23  0.000000D+00  0.000000D+00  0.000000D+00  0.000000D+00  0.000000D+00
               16            17            18            19            20 
     16  0.464890D+01
     17  0.000000D+00  0.461699D+01
     18  0.000000D+00  0.000000D+00  0.461699D+01
     19  0.000000D+00  0.000000D+00  0.000000D+00  0.467935D+01
     20  0.000000D+00  0.000000D+00  0.000000D+00  0.000000D+00  0.465675D+01
     21  0.400000D+01  0.000000D+00  0.000000D+00  0.000000D+00  0.000000D+00
     22  0.000000D+00  0.396483D+01  0.000000D+00  0.000000D+00  0.000000D+00
     23  0.000000D+00  0.000000D+00  0.396483D+01  0.000000D+00  0.000000D+00
               21            22            23 
     21  0.465675D+01
     22  0.000000D+00  0.459979D+01
     23  0.000000D+00  0.000000D+00  0.459979D+01
 Entering OneElI...
 OneElI was handed  6710878592 working-precision words.
 Calculate overlap and kinetic energy integrals
    NBasis =  74  MinDer = 0  MaxDer = 0
 Requested accuracy = 0.1000D-12
 ShPair: Thresh= 1.00D-13 NBox=     0 BxSize= 0.00D+00 RnKept= 4.19D+00
         NSMCal=                  351 NSMKep=                 351
 PrmmSu-InSpLW:  IPartL=    0 NPrtUS=   15 NPrtUL=    1 DoSpLW=F IThBeg=    0 IThEnd=   14 NThAct=   15.
 PrSmSu:  IncTry=   512 NBBP=            351 NTPThr=   100 NPartT=   15 Incr=           1 LDynOK=F GPUOK=F.
 PrsmSu:  NPrtUS=  15 ThrOK=T IAlg=1 LenDen=           0 ISkipM=0 DoSpLW=F IThBeg=    0 IThEnd=   14.
 Prism:   IPart=     0 DynPar=F LinDyn=F Incr=           1.
 PRISM was handed   447371141 working-precision words and   351 shell-pairs
 PRISM was handed   447371141 working-precision words and   351 shell-pairs
 PRISM was handed   447371141 working-precision words and   351 shell-pairs
 PRISM was handed   447371141 working-precision words and   351 shell-pairs
 PRISM was handed   447371141 working-precision words and   351 shell-pairs
 PRISM was handed   447371141 working-precision words and   351 shell-pairs
 PRISM was handed   447371141 working-precision words and   351 shell-pairs
 PRISM was handed   447371141 working-precision words and   351 shell-pairs
 PRISM was handed   447371141 working-precision words and   351 shell-pairs
 PRISM was handed   447371141 working-precision words and   351 shell-pairs
 PRISM was handed   447371141 working-precision words and   351 shell-pairs
 PRISM was handed   447371141 working-precision words and   351 shell-pairs
 PRISM was handed   447371141 working-precision words and   351 shell-pairs
 PRISM was handed   447371141 working-precision words and   351 shell-pairs
 PRISM was handed   447371141 working-precision words and   351 shell-pairs
 IPart=  9 NShTot=          21 NBatch=          18 AvBLen=         1.2
 PrsmSu-ThDecC:  IPartSL=    9    0 NPrtUSL=   15    1 IThBeg=    0 IThEnd=   14 CPU=   -1 GPU=   -1 NThAct=   15.
 IPart=  0 NShTot=          48 NBatch=          41 AvBLen=         1.2
 PrsmSu-ThDecC:  IPartSL=    0    0 NPrtUSL=   15    1 IThBeg=    0 IThEnd=   14 CPU=   -1 GPU=   -1 NThAct=   14.
 IPart= 14 NShTot=          10 NBatch=           7 AvBLen=         1.4
 PrsmSu-ThDecC:  IPartSL=   14    0 NPrtUSL=   15    1 IThBeg=    0 IThEnd=   14 CPU=   -1 GPU=   -1 NThAct=   13.
 IPart=  6 NShTot=          21 NBatch=          18 AvBLen=         1.2
 IPart=  8 NShTot=          21 NBatch=          18 AvBLen=         1.2
 PrsmSu-ThDecC:  IPartSL=    6    0 NPrtUSL=   15    1 IThBeg=    0 IThEnd=   14 CPU=   -1 GPU=   -1 NThAct=   12.
 PrsmSu-ThDecC:  IPartSL=    8    0 NPrtUSL=   15    1 IThBeg=    0 IThEnd=   14 CPU=   -1 GPU=   -1 NThAct=   11.
 IPart=  3 NShTot=          29 NBatch=          23 AvBLen=         1.3
 PrsmSu-ThDecC:  IPartSL=    3    0 NPrtUSL=   15    1 IThBeg=    0 IThEnd=   14 CPU=   -1 GPU=   -1 NThAct=   10.
 IPart= 12 NShTot=          11 NBatch=           8 AvBLen=         1.4
 PrsmSu-ThDecC:  IPartSL=   12    0 NPrtUSL=   15    1 IThBeg=    0 IThEnd=   14 CPU=   -1 GPU=   -1 NThAct=    9.
 IPart=  4 NShTot=          26 NBatch=          20 AvBLen=         1.3
 PrsmSu-ThDecC:  IPartSL=    4    0 NPrtUSL=   15    1 IThBeg=    0 IThEnd=   14 CPU=   -1 GPU=   -1 NThAct=    8.
 IPart= 11 NShTot=          17 NBatch=          14 AvBLen=         1.2
 PrsmSu-ThDecC:  IPartSL=   11    0 NPrtUSL=   15    1 IThBeg=    0 IThEnd=   14 CPU=   -1 GPU=   -1 NThAct=    7.
 IPart=  1 NShTot=          42 NBatch=          35 AvBLen=         1.2
 PrsmSu-ThDecC:  IPartSL=    1    0 NPrtUSL=   15    1 IThBeg=    0 IThEnd=   14 CPU=   -1 GPU=   -1 NThAct=    6.
 IPart= 13 NShTot=          10 NBatch=           7 AvBLen=         1.4
 PrsmSu-ThDecC:  IPartSL=   13    0 NPrtUSL=   15    1 IThBeg=    0 IThEnd=   14 CPU=   -1 GPU=   -1 NThAct=    5.
 IPart= 10 NShTot=          17 NBatch=          14 AvBLen=         1.2
 PrsmSu-ThDecC:  IPartSL=   10    0 NPrtUSL=   15    1 IThBeg=    0 IThEnd=   14 CPU=   -1 GPU=   -1 NThAct=    4.
 IPart=  2 NShTot=          32 NBatch=          25 AvBLen=         1.3
 PrsmSu-ThDecC:  IPartSL=    2    0 NPrtUSL=   15    1 IThBeg=    0 IThEnd=   14 CPU=   -1 GPU=   -1 NThAct=    3.
 IPart=  7 NShTot=          21 NBatch=          18 AvBLen=         1.2
 IPart=  5 NShTot=          25 NBatch=          19 AvBLen=         1.3
 PrsmSu-ThDecC:  IPartSL=    7    0 NPrtUSL=   15    1 IThBeg=    0 IThEnd=   14 CPU=   -1 GPU=   -1 NThAct=    2.
 PrsmSu-ThDecC:  IPartSL=    5    0 NPrtUSL=   15    1 IThBeg=    0 IThEnd=   14 CPU=   -1 GPU=   -1 NThAct=    1.
 PrSmSu:  NxtVal=             16.
 *** Overlap *** 
                1             2             3             4             5 
      1  0.100000D+01
      2  0.103339D+00  0.100000D+01
      3  0.516997D+00  0.765042D+00  0.100000D+01
      4  0.147493D+00  0.834862D+00  0.535796D+00  0.100000D+01
      5  0.000000D+00  0.000000D+00  0.000000D+00  0.000000D+00  0.100000D+01
      6  0.000000D+00  0.000000D+00  0.000000D+00  0.000000D+00  0.000000D+00
      7  0.000000D+00  0.000000D+00  0.000000D+00  0.000000D+00  0.000000D+00
      8  0.000000D+00  0.000000D+00  0.000000D+00  0.000000D+00  0.611573D+00
      9  0.000000D+00  0.000000D+00  0.000000D+00  0.000000D+00  0.000000D+00
     10  0.000000D+00  0.000000D+00  0.000000D+00  0.000000D+00  0.000000D+00
     11  0.000000D+00  0.000000D+00  0.000000D+00  0.000000D+00  0.221927D+00
     12  0.000000D+00  0.000000D+00  0.000000D+00  0.000000D+00  0.000000D+00
     13  0.000000D+00  0.000000D+00  0.000000D+00  0.000000D+00  0.000000D+00
     14  0.000000D+00  0.000000D+00  0.000000D+00  0.000000D+00  0.000000D+00
     15  0.000000D+00  0.000000D+00  0.000000D+00  0.000000D+00  0.000000D+00
     16  0.000000D+00  0.000000D+00  0.000000D+00  0.000000D+00  0.000000D+00
     17  0.000000D+00  0.000000D+00  0.000000D+00  0.000000D+00  0.000000D+00
     18  0.000000D+00  0.000000D+00  0.000000D+00  0.000000D+00  0.000000D+00
     19  0.000000D+00  0.000000D+00  0.000000D+00  0.000000D+00  0.000000D+00
     20  0.000000D+00  0.000000D+00  0.000000D+00  0.000000D+00  0.000000D+00
     21  0.000000D+00  0.000000D+00  0.000000D+00  0.000000D+00  0.000000D+00
     22  0.000000D+00  0.000000D+00  0.000000D+00  0.000000D+00  0.000000D+00
     23  0.000000D+00  0.000000D+00  0.000000D+00  0.000000D+00  0.000000D+00
     24  0.000000D+00  0.000000D+00  0.000000D+00  0.000000D+00  0.000000D+00
     25  0.000000D+00  0.000000D+00  0.000000D+00  0.000000D+00  0.000000D+00
     26  0.000000D+00  0.000000D+00  0.000000D+00  0.000000D+00  0.000000D+00
     27  0.000000D+00  0.000000D+00  0.000000D+00  0.000000D+00  0.000000D+00
     28  0.000000D+00  0.000000D+00  0.000000D+00  0.000000D+00  0.000000D+00
     29  0.000000D+00  0.000000D+00  0.000000D+00  0.000000D+00  0.000000D+00
     30  0.000000D+00  0.000000D+00  0.000000D+00  0.000000D+00  0.000000D+00
     31  0.108817D-01  0.246457D+00  0.110470D+00  0.266799D+00  0.000000D+00
     32  0.802239D-01  0.503595D+00  0.311053D+00  0.586533D+00  0.000000D+00
     33  0.833033D-01  0.555759D+00  0.322602D+00  0.784451D+00  0.000000D+00
     34  0.000000D+00  0.000000D+00  0.000000D+00  0.000000D+00  0.596793D-01
     35  0.000000D+00  0.000000D+00  0.000000D+00  0.000000D+00  0.000000D+00
     36  0.270093D-01  0.225627D+00  0.190419D+00  0.102237D+00  0.000000D+00
     37  0.000000D+00  0.000000D+00  0.000000D+00  0.000000D+00  0.182173D+00
     38  0.000000D+00  0.000000D+00  0.000000D+00  0.000000D+00  0.000000D+00
     39  0.167938D+00  0.552617D+00  0.509551D+00  0.339548D+00  0.000000D+00
     40  0.105750D+00  0.154606D+00  0.287999D+00  0.359860D-01  0.000000D+00
     41  0.000000D+00  0.000000D+00  0.000000D+00  0.000000D+00  0.195664D+00
     42  0.000000D+00  0.000000D+00  0.000000D+00  0.000000D+00  0.000000D+00
     43  0.000000D+00  0.000000D+00  0.000000D+00  0.000000D+00  0.000000D+00
     44  0.000000D+00  0.000000D+00  0.000000D+00  0.000000D+00  0.000000D+00
     45  0.143947D-04  0.511708D-01  0.101318D-01  0.643809D-01  0.000000D+00
     46  0.453854D-01  0.382762D+00  0.213976D+00  0.453886D+00  0.000000D+00
     47  0.521611D-02  0.210914D+00  0.800981D-01  0.250889D+00  0.000000D+00
     48  0.828474D-01  0.529678D+00  0.317115D+00  0.689881D+00  0.000000D+00
     49  0.000000D+00  0.000000D+00  0.000000D+00  0.000000D+00  0.239490D-01
     50  0.000000D+00  0.000000D+00  0.000000D+00  0.000000D+00  0.000000D+00
     51 -0.599620D-02 -0.145706D+00 -0.942533D-01 -0.702107D-01  0.000000D+00
     52  0.000000D+00  0.000000D+00  0.000000D+00  0.000000D+00  0.122961D+00
     53  0.000000D+00  0.000000D+00  0.000000D+00  0.000000D+00  0.000000D+00
     54 -0.108912D+00 -0.437249D+00 -0.380522D+00 -0.256885D+00  0.000000D+00
     55  0.000000D+00  0.000000D+00  0.000000D+00  0.000000D+00  0.154856D+00
     56  0.000000D+00  0.000000D+00  0.000000D+00  0.000000D+00  0.000000D+00
     57 -0.144301D+00 -0.636111D+00 -0.480679D+00 -0.535037D+00  0.000000D+00
     58  0.203472D-01  0.962875D-01  0.134542D+00  0.198092D-01  0.000000D+00
     59  0.000000D+00  0.000000D+00  0.000000D+00  0.000000D+00 -0.736704D-01
     60  0.000000D+00  0.000000D+00  0.000000D+00  0.000000D+00  0.000000D+00
     61  0.000000D+00  0.000000D+00  0.000000D+00  0.000000D+00  0.000000D+00
     62  0.000000D+00  0.000000D+00  0.000000D+00  0.000000D+00  0.000000D+00
     63  0.200045D+00  0.330228D+00  0.477718D+00  0.109109D+00  0.000000D+00
     64  0.000000D+00  0.000000D+00  0.000000D+00  0.000000D+00 -0.300129D+00
     65  0.000000D+00  0.000000D+00  0.000000D+00  0.000000D+00  0.000000D+00
     66  0.000000D+00  0.000000D+00  0.000000D+00  0.000000D+00  0.000000D+00
     67  0.000000D+00  0.000000D+00  0.000000D+00  0.000000D+00  0.000000D+00
     68 -0.109552D+00 -0.543314D-01 -0.216981D+00 -0.783143D-02  0.000000D+00
     69  0.000000D+00  0.000000D+00  0.000000D+00  0.000000D+00  0.218110D+00
     70  0.000000D+00  0.000000D+00  0.000000D+00  0.000000D+00  0.000000D+00
     71  0.000000D+00  0.000000D+00  0.000000D+00  0.000000D+00  0.000000D+00
     72  0.000000D+00  0.000000D+00  0.000000D+00  0.000000D+00  0.000000D+00
     73  0.000000D+00  0.000000D+00  0.000000D+00  0.000000D+00  0.000000D+00
     74  0.000000D+00  0.000000D+00  0.000000D+00  0.000000D+00  0.000000D+00
                6             7             8             9            10 
      6  0.100000D+01
      7  0.000000D+00  0.100000D+01
      8  0.000000D+00  0.000000D+00  0.100000D+01
      9  0.611573D+00  0.000000D+00  0.000000D+00  0.100000D+01
     10  0.000000D+00  0.611573D+00  0.000000D+00  0.000000D+00  0.100000D+01
     11  0.000000D+00  0.000000D+00  0.674476D+00  0.000000D+00  0.000000D+00
     12  0.221927D+00  0.000000D+00  0.000000D+00  0.674476D+00  0.000000D+00
     13  0.000000D+00  0.221927D+00  0.000000D+00  0.000000D+00  0.674476D+00
     14  0.000000D+00  0.000000D+00  0.000000D+00  0.000000D+00  0.000000D+00
     15  0.000000D+00  0.000000D+00  0.000000D+00  0.000000D+00  0.000000D+00
     16  0.000000D+00  0.000000D+00  0.000000D+00  0.000000D+00  0.000000D+00
     17  0.000000D+00  0.000000D+00  0.000000D+00  0.000000D+00  0.000000D+00
     18  0.000000D+00  0.000000D+00  0.000000D+00  0.000000D+00  0.000000D+00
     19  0.000000D+00  0.000000D+00  0.000000D+00  0.000000D+00  0.000000D+00
     20  0.000000D+00  0.000000D+00  0.000000D+00  0.000000D+00  0.000000D+00
     21  0.000000D+00  0.000000D+00  0.000000D+00  0.000000D+00  0.000000D+00
     22  0.000000D+00  0.000000D+00  0.000000D+00  0.000000D+00  0.000000D+00
     23  0.000000D+00  0.000000D+00  0.000000D+00  0.000000D+00  0.000000D+00
     24  0.000000D+00  0.000000D+00  0.000000D+00  0.000000D+00  0.000000D+00
     25  0.000000D+00  0.000000D+00  0.000000D+00  0.000000D+00  0.000000D+00
     26  0.000000D+00  0.000000D+00  0.000000D+00  0.000000D+00  0.000000D+00
     27  0.000000D+00  0.000000D+00  0.000000D+00  0.000000D+00  0.000000D+00
     28  0.000000D+00  0.000000D+00  0.000000D+00  0.000000D+00  0.000000D+00
     29  0.000000D+00  0.000000D+00  0.000000D+00  0.000000D+00  0.000000D+00
     30  0.000000D+00  0.000000D+00  0.000000D+00  0.000000D+00  0.000000D+00
     31  0.000000D+00 -0.150337D+00  0.000000D+00  0.000000D+00 -0.435882D+00
     32  0.000000D+00 -0.217212D+00  0.000000D+00  0.000000D+00 -0.557529D+00
     33  0.000000D+00 -0.821954D-01  0.000000D+00  0.000000D+00 -0.280644D+00
     34  0.000000D+00  0.000000D+00  0.177968D+00  0.000000D+00  0.000000D+00
     35  0.596793D-01  0.000000D+00  0.000000D+00  0.177968D+00  0.000000D+00
     36  0.000000D+00 -0.264321D+00  0.000000D+00  0.000000D+00 -0.259867D+00
     37  0.000000D+00  0.000000D+00  0.454855D+00  0.000000D+00  0.000000D+00
     38  0.182173D+00  0.000000D+00  0.000000D+00  0.454855D+00  0.000000D+00
     39  0.000000D+00 -0.261598D+00  0.000000D+00  0.000000D+00 -0.261739D+00
     40  0.000000D+00 -0.313816D+00  0.000000D+00  0.000000D+00 -0.441608D-01
     41  0.000000D+00  0.000000D+00  0.257099D+00  0.000000D+00  0.000000D+00
     42  0.195664D+00  0.000000D+00  0.000000D+00  0.257099D+00  0.000000D+00
     43  0.000000D+00  0.000000D+00  0.000000D+00  0.000000D+00  0.000000D+00
     44  0.000000D+00  0.000000D+00  0.000000D+00  0.000000D+00  0.000000D+00
     45  0.000000D+00  0.138132D-01  0.000000D+00  0.000000D+00  0.115681D+00
     46  0.000000D+00  0.212138D+00  0.000000D+00  0.000000D+00  0.541976D+00
     47  0.000000D+00  0.111974D+00  0.000000D+00  0.000000D+00  0.397803D+00
     48  0.000000D+00  0.143401D+00  0.000000D+00  0.000000D+00  0.433128D+00
     49  0.000000D+00  0.000000D+00  0.103610D+00  0.000000D+00  0.000000D+00
     50  0.239490D-01  0.000000D+00  0.000000D+00  0.103610D+00  0.000000D+00
     51  0.000000D+00 -0.140803D+00  0.000000D+00  0.000000D+00 -0.204858D+00
     52  0.000000D+00  0.000000D+00  0.330760D+00  0.000000D+00  0.000000D+00
     53  0.122961D+00  0.000000D+00  0.000000D+00  0.330760D+00  0.000000D+00
     54  0.000000D+00 -0.323979D+00  0.000000D+00  0.000000D+00 -0.372720D+00
     55  0.000000D+00  0.000000D+00  0.471597D+00  0.000000D+00  0.000000D+00
     56  0.154856D+00  0.000000D+00  0.000000D+00  0.471597D+00  0.000000D+00
     57  0.000000D+00 -0.659950D-01  0.000000D+00  0.000000D+00 -0.549301D-01
     58  0.000000D+00  0.200589D+00  0.000000D+00  0.000000D+00  0.696215D-01
     59  0.000000D+00  0.000000D+00 -0.131327D+00  0.000000D+00  0.000000D+00
     60 -0.736704D-01  0.000000D+00  0.000000D+00 -0.131327D+00  0.000000D+00
     61  0.000000D+00  0.000000D+00  0.000000D+00  0.000000D+00  0.000000D+00
     62  0.000000D+00  0.000000D+00  0.000000D+00  0.000000D+00  0.000000D+00
     63  0.000000D+00  0.214231D+00  0.000000D+00  0.000000D+00 -0.599808D-02
     64  0.000000D+00  0.000000D+00 -0.489453D+00  0.000000D+00  0.000000D+00
     65 -0.300129D+00  0.000000D+00  0.000000D+00 -0.489453D+00  0.000000D+00
     66  0.000000D+00  0.000000D+00  0.000000D+00  0.000000D+00  0.000000D+00
     67  0.000000D+00  0.000000D+00  0.000000D+00  0.000000D+00  0.000000D+00
     68  0.000000D+00 -0.234910D+00  0.000000D+00  0.000000D+00  0.229337D-01
     69  0.000000D+00  0.000000D+00  0.165972D+00  0.000000D+00  0.000000D+00
     70  0.218110D+00  0.000000D+00  0.000000D+00  0.165972D+00  0.000000D+00
     71  0.000000D+00  0.000000D+00  0.000000D+00  0.000000D+00  0.000000D+00
     72  0.000000D+00  0.000000D+00  0.000000D+00  0.000000D+00  0.000000D+00
     73  0.000000D+00  0.000000D+00  0.000000D+00  0.000000D+00  0.000000D+00
     74  0.000000D+00  0.000000D+00  0.000000D+00  0.000000D+00  0.000000D+00
               11            12            13            14            15 
     11  0.100000D+01
     12  0.000000D+00  0.100000D+01
     13  0.000000D+00  0.000000D+00  0.100000D+01
     14  0.000000D+00  0.000000D+00  0.000000D+00  0.100000D+01
     15  0.000000D+00  0.000000D+00  0.000000D+00  0.000000D+00  0.100000D+01
     16  0.000000D+00  0.000000D+00  0.000000D+00  0.000000D+00  0.000000D+00
     17  0.000000D+00  0.000000D+00  0.000000D+00  0.000000D+00  0.000000D+00
     18  0.000000D+00  0.000000D+00  0.000000D+00  0.000000D+00  0.000000D+00
     19  0.000000D+00  0.000000D+00  0.000000D+00  0.531577D+00  0.000000D+00
     20  0.000000D+00  0.000000D+00  0.000000D+00  0.000000D+00  0.531577D+00
     21  0.000000D+00  0.000000D+00  0.000000D+00  0.000000D+00  0.000000D+00
     22  0.000000D+00  0.000000D+00  0.000000D+00  0.000000D+00  0.000000D+00
     23  0.000000D+00  0.000000D+00  0.000000D+00  0.000000D+00  0.000000D+00
     24  0.000000D+00  0.000000D+00  0.000000D+00  0.000000D+00  0.000000D+00
     25  0.000000D+00  0.000000D+00  0.000000D+00  0.000000D+00  0.000000D+00
     26  0.000000D+00  0.000000D+00  0.000000D+00  0.000000D+00  0.000000D+00
     27  0.000000D+00  0.000000D+00  0.000000D+00  0.000000D+00  0.000000D+00
     28  0.000000D+00  0.000000D+00  0.000000D+00  0.000000D+00  0.000000D+00
     29  0.000000D+00  0.000000D+00  0.000000D+00  0.000000D+00  0.000000D+00
     30  0.000000D+00  0.000000D+00  0.000000D+00  0.000000D+00  0.000000D+00
     31  0.000000D+00  0.000000D+00 -0.337791D+00  0.255354D+00  0.000000D+00
     32  0.000000D+00  0.000000D+00 -0.599024D+00  0.149815D+00  0.000000D+00
     33  0.000000D+00  0.000000D+00 -0.512106D+00  0.216416D-01  0.000000D+00
     34  0.135848D+00  0.000000D+00  0.000000D+00  0.000000D+00 -0.187798D+00
     35  0.000000D+00  0.135848D+00  0.000000D+00  0.000000D+00  0.000000D+00
     36  0.000000D+00  0.000000D+00  0.121752D-01  0.329651D+00  0.000000D+00
     37  0.458558D+00  0.000000D+00  0.000000D+00  0.000000D+00 -0.248110D+00
     38  0.000000D+00  0.458558D+00  0.000000D+00  0.000000D+00  0.000000D+00
     39  0.000000D+00  0.000000D+00  0.112925D+00  0.492377D-01  0.000000D+00
     40  0.000000D+00  0.000000D+00  0.505061D-01  0.175863D+00  0.000000D+00
     41  0.786068D-01  0.000000D+00  0.000000D+00  0.000000D+00 -0.376363D+00
     42  0.000000D+00  0.786068D-01  0.000000D+00  0.000000D+00  0.000000D+00
     43  0.000000D+00  0.000000D+00  0.000000D+00  0.000000D+00  0.000000D+00
     44  0.000000D+00  0.000000D+00  0.000000D+00  0.000000D+00  0.000000D+00
     45  0.000000D+00  0.000000D+00  0.943642D-01  0.496019D-01  0.000000D+00
     46  0.000000D+00  0.000000D+00  0.545450D+00  0.208676D+00  0.000000D+00
     47  0.000000D+00  0.000000D+00  0.342957D+00  0.213527D+00  0.000000D+00
     48  0.000000D+00  0.000000D+00  0.622657D+00  0.656039D-01  0.000000D+00
     49  0.872654D-01  0.000000D+00  0.000000D+00  0.000000D+00  0.952509D-01
     50  0.000000D+00  0.872654D-01  0.000000D+00  0.000000D+00  0.000000D+00
     51  0.000000D+00  0.000000D+00 -0.568150D-02 -0.245410D+00  0.000000D+00
     52  0.322740D+00  0.000000D+00  0.000000D+00  0.000000D+00  0.234401D+00
     53  0.000000D+00  0.322740D+00  0.000000D+00  0.000000D+00  0.000000D+00
     54  0.000000D+00  0.000000D+00  0.218961D-01 -0.197654D+00  0.000000D+00
     55  0.688673D+00  0.000000D+00  0.000000D+00  0.000000D+00  0.119100D+00
     56  0.000000D+00  0.688673D+00  0.000000D+00  0.000000D+00  0.000000D+00
     57  0.000000D+00  0.000000D+00  0.229031D+00  0.412826D-01  0.000000D+00
     58  0.000000D+00  0.000000D+00 -0.219295D-01  0.232215D+00  0.000000D+00
     59 -0.403168D-01  0.000000D+00  0.000000D+00  0.000000D+00 -0.218177D+00
     60  0.000000D+00 -0.403168D-01  0.000000D+00  0.000000D+00  0.000000D+00
     61  0.000000D+00  0.000000D+00  0.000000D+00  0.000000D+00  0.000000D+00
     62  0.000000D+00  0.000000D+00  0.000000D+00  0.000000D+00  0.000000D+00
     63  0.000000D+00  0.000000D+00 -0.143727D+00  0.928277D-02  0.000000D+00
     64 -0.226838D+00  0.000000D+00  0.000000D+00  0.000000D+00 -0.328062D+00
     65  0.000000D+00 -0.226838D+00  0.000000D+00  0.000000D+00  0.000000D+00
     66  0.000000D+00  0.000000D+00  0.000000D+00  0.000000D+00  0.000000D+00
     67  0.000000D+00  0.000000D+00  0.000000D+00  0.000000D+00  0.000000D+00
     68  0.000000D+00  0.000000D+00  0.173143D-01 -0.118619D+00  0.000000D+00
     69  0.214431D-01  0.000000D+00  0.000000D+00  0.000000D+00  0.344879D+00
     70  0.000000D+00  0.214431D-01  0.000000D+00  0.000000D+00  0.000000D+00
     71  0.000000D+00  0.000000D+00  0.000000D+00  0.000000D+00  0.000000D+00
     72  0.000000D+00  0.000000D+00  0.000000D+00  0.000000D+00  0.000000D+00
     73  0.000000D+00  0.000000D+00  0.000000D+00  0.000000D+00  0.000000D+00
     74  0.000000D+00  0.000000D+00  0.000000D+00  0.000000D+00  0.000000D+00
               16            17            18            19            20 
     16  0.100000D+01
     17  0.000000D+00  0.100000D+01
     18  0.000000D+00  0.000000D+00  0.100000D+01
     19  0.000000D+00  0.000000D+00  0.000000D+00  0.100000D+01
     20  0.000000D+00  0.000000D+00  0.000000D+00  0.000000D+00  0.100000D+01
     21  0.531577D+00  0.000000D+00  0.000000D+00  0.000000D+00  0.000000D+00
     22  0.000000D+00  0.531577D+00  0.000000D+00  0.000000D+00  0.000000D+00
     23  0.000000D+00  0.000000D+00  0.531577D+00  0.000000D+00  0.000000D+00
     24  0.000000D+00  0.000000D+00  0.000000D+00  0.000000D+00  0.000000D+00
     25  0.000000D+00  0.000000D+00  0.000000D+00  0.000000D+00  0.000000D+00
     26  0.000000D+00  0.000000D+00  0.000000D+00  0.000000D+00  0.000000D+00
     27  0.000000D+00  0.000000D+00  0.000000D+00  0.000000D+00  0.000000D+00
     28  0.000000D+00  0.000000D+00  0.000000D+00  0.000000D+00  0.000000D+00
     29  0.000000D+00  0.000000D+00  0.000000D+00  0.000000D+00  0.000000D+00
     30  0.000000D+00  0.000000D+00  0.000000D+00  0.000000D+00  0.000000D+00
     31  0.000000D+00  0.000000D+00  0.000000D+00  0.473130D+00  0.000000D+00
     32  0.000000D+00  0.000000D+00  0.000000D+00  0.398199D+00  0.000000D+00
     33  0.000000D+00  0.000000D+00  0.000000D+00  0.103737D+00  0.000000D+00
     34  0.000000D+00  0.000000D+00  0.000000D+00  0.000000D+00 -0.341177D+00
     35 -0.187798D+00  0.000000D+00  0.000000D+00  0.000000D+00  0.000000D+00
     36  0.000000D+00  0.000000D+00  0.000000D+00  0.238217D-01  0.000000D+00
     37  0.000000D+00  0.000000D+00  0.000000D+00  0.000000D+00 -0.605863D+00
     38 -0.248110D+00  0.000000D+00  0.000000D+00  0.000000D+00  0.000000D+00
     39  0.000000D+00  0.000000D+00  0.000000D+00 -0.199713D+00  0.000000D+00
     40  0.000000D+00  0.000000D+00  0.000000D+00 -0.675683D-01  0.000000D+00
     41  0.000000D+00  0.000000D+00  0.000000D+00  0.000000D+00 -0.202486D+00
     42 -0.376363D+00  0.000000D+00  0.000000D+00  0.000000D+00  0.000000D+00
     43  0.000000D+00  0.110636D+00  0.000000D+00  0.000000D+00  0.000000D+00
     44  0.000000D+00  0.000000D+00  0.110636D+00  0.000000D+00  0.000000D+00
     45  0.000000D+00  0.000000D+00  0.000000D+00  0.166523D+00  0.000000D+00
     46  0.000000D+00  0.000000D+00  0.000000D+00  0.484073D+00  0.000000D+00
     47  0.000000D+00  0.000000D+00  0.000000D+00  0.475967D+00  0.000000D+00
     48  0.000000D+00  0.000000D+00  0.000000D+00  0.245275D+00  0.000000D+00
     49  0.000000D+00  0.000000D+00  0.000000D+00  0.000000D+00  0.228698D+00
     50  0.952509D-01  0.000000D+00  0.000000D+00  0.000000D+00  0.000000D+00
     51  0.000000D+00  0.000000D+00  0.000000D+00 -0.726292D-01  0.000000D+00
     52  0.000000D+00  0.000000D+00  0.000000D+00  0.000000D+00  0.546473D+00
     53  0.234401D+00  0.000000D+00  0.000000D+00  0.000000D+00  0.000000D+00
     54  0.000000D+00  0.000000D+00  0.000000D+00  0.320972D-01  0.000000D+00
     55  0.000000D+00  0.000000D+00  0.000000D+00  0.000000D+00  0.453082D+00
     56  0.119100D+00  0.000000D+00  0.000000D+00  0.000000D+00  0.000000D+00
     57  0.000000D+00  0.000000D+00  0.000000D+00  0.248483D+00  0.000000D+00
     58  0.000000D+00  0.000000D+00  0.000000D+00 -0.242465D-01  0.000000D+00
     59  0.000000D+00  0.000000D+00  0.000000D+00  0.000000D+00 -0.146777D+00
     60 -0.218177D+00  0.000000D+00  0.000000D+00  0.000000D+00  0.000000D+00
     61  0.000000D+00  0.420134D-01  0.000000D+00  0.000000D+00  0.000000D+00
     62  0.000000D+00  0.000000D+00  0.420134D-01  0.000000D+00  0.000000D+00
     63  0.000000D+00  0.000000D+00  0.000000D+00 -0.121987D+00  0.000000D+00
     64  0.000000D+00  0.000000D+00  0.000000D+00  0.000000D+00 -0.299824D+00
     65 -0.328062D+00  0.000000D+00  0.000000D+00  0.000000D+00  0.000000D+00
     66  0.000000D+00  0.157352D+00  0.000000D+00  0.000000D+00  0.000000D+00
     67  0.000000D+00  0.000000D+00  0.157352D+00  0.000000D+00  0.000000D+00
     68  0.000000D+00  0.000000D+00  0.000000D+00 -0.120565D-01  0.000000D+00
     69  0.000000D+00  0.000000D+00  0.000000D+00  0.000000D+00  0.339183D-01
     70  0.344879D+00  0.000000D+00  0.000000D+00  0.000000D+00  0.000000D+00
     71  0.000000D+00 -0.173617D+00  0.000000D+00  0.000000D+00  0.000000D+00
     72  0.000000D+00  0.000000D+00 -0.173617D+00  0.000000D+00  0.000000D+00
     73  0.000000D+00  0.000000D+00  0.000000D+00  0.000000D+00  0.000000D+00
     74  0.000000D+00  0.000000D+00  0.000000D+00  0.000000D+00  0.000000D+00
               21            22            23            24            25 
     21  0.100000D+01
     22  0.000000D+00  0.100000D+01
     23  0.000000D+00  0.000000D+00  0.100000D+01
     24  0.000000D+00  0.000000D+00  0.000000D+00  0.100000D+01
     25  0.000000D+00  0.000000D+00  0.000000D+00  0.000000D+00  0.100000D+01
     26  0.000000D+00  0.000000D+00  0.000000D+00  0.000000D+00  0.000000D+00
     27  0.000000D+00  0.000000D+00  0.000000D+00  0.000000D+00  0.000000D+00
     28  0.000000D+00  0.000000D+00  0.000000D+00  0.000000D+00  0.000000D+00
     29  0.000000D+00  0.000000D+00  0.000000D+00  0.000000D+00  0.000000D+00
     30  0.000000D+00  0.000000D+00  0.000000D+00  0.000000D+00  0.000000D+00
     31  0.000000D+00  0.000000D+00  0.000000D+00 -0.368666D+00  0.000000D+00
     32  0.000000D+00  0.000000D+00  0.000000D+00 -0.105407D+00  0.000000D+00
     33  0.000000D+00  0.000000D+00  0.000000D+00 -0.685703D-02  0.000000D+00
     34  0.000000D+00  0.000000D+00  0.000000D+00  0.000000D+00  0.391829D+00
     35 -0.341177D+00  0.000000D+00  0.000000D+00  0.000000D+00  0.000000D+00
     36  0.000000D+00  0.000000D+00  0.000000D+00 -0.166114D+00  0.000000D+00
     37  0.000000D+00  0.000000D+00  0.000000D+00  0.000000D+00  0.273095D+00
     38 -0.605863D+00  0.000000D+00  0.000000D+00  0.000000D+00  0.000000D+00
     39  0.000000D+00  0.000000D+00  0.000000D+00  0.100195D+00  0.000000D+00
     40  0.000000D+00  0.000000D+00  0.000000D+00 -0.182484D-01  0.000000D+00
     41  0.000000D+00  0.000000D+00  0.000000D+00  0.000000D+00  0.328045D+00
     42 -0.202486D+00  0.000000D+00  0.000000D+00  0.000000D+00  0.000000D+00
     43  0.000000D+00  0.202705D+00  0.000000D+00  0.000000D+00  0.000000D+00
     44  0.000000D+00  0.000000D+00  0.202705D+00  0.000000D+00  0.000000D+00
     45  0.000000D+00  0.000000D+00  0.000000D+00  0.157603D+00  0.000000D+00
     46  0.000000D+00  0.000000D+00  0.000000D+00  0.174815D+00  0.000000D+00
     47  0.000000D+00  0.000000D+00  0.000000D+00  0.348472D+00  0.000000D+00
     48  0.000000D+00  0.000000D+00  0.000000D+00  0.338129D-01  0.000000D+00
     49  0.000000D+00  0.000000D+00  0.000000D+00  0.000000D+00  0.264173D+00
     50  0.228698D+00  0.000000D+00  0.000000D+00  0.000000D+00  0.000000D+00
     51  0.000000D+00  0.000000D+00  0.000000D+00 -0.226585D+00  0.000000D+00
     52  0.000000D+00  0.000000D+00  0.000000D+00  0.000000D+00  0.345403D+00
     53  0.546473D+00  0.000000D+00  0.000000D+00  0.000000D+00  0.000000D+00
     54  0.000000D+00  0.000000D+00  0.000000D+00 -0.190575D-02  0.000000D+00
     55  0.000000D+00  0.000000D+00  0.000000D+00  0.000000D+00  0.846696D-01
     56  0.453082D+00  0.000000D+00  0.000000D+00  0.000000D+00  0.000000D+00
     57  0.000000D+00  0.000000D+00  0.000000D+00  0.580568D-01  0.000000D+00
     58  0.000000D+00  0.000000D+00  0.000000D+00  0.926438D-01  0.000000D+00
     59  0.000000D+00  0.000000D+00  0.000000D+00  0.000000D+00 -0.317120D+00
     60 -0.146777D+00  0.000000D+00  0.000000D+00  0.000000D+00  0.000000D+00
     61  0.000000D+00  0.975635D-01  0.000000D+00  0.000000D+00  0.000000D+00
     62  0.000000D+00  0.000000D+00  0.975635D-01  0.000000D+00  0.000000D+00
     63  0.000000D+00  0.000000D+00  0.000000D+00  0.377025D-02  0.000000D+00
     64  0.000000D+00  0.000000D+00  0.000000D+00  0.000000D+00 -0.152829D+00
     65 -0.299824D+00  0.000000D+00  0.000000D+00  0.000000D+00  0.000000D+00
     66  0.000000D+00  0.384679D+00  0.000000D+00  0.000000D+00  0.000000D+00
     67  0.000000D+00  0.000000D+00  0.384679D+00  0.000000D+00  0.000000D+00
     68  0.000000D+00  0.000000D+00  0.000000D+00 -0.103909D+00  0.000000D+00
     69  0.000000D+00  0.000000D+00  0.000000D+00  0.000000D+00  0.153590D+00
     70  0.339183D-01  0.000000D+00  0.000000D+00  0.000000D+00  0.000000D+00
     71  0.000000D+00 -0.171351D+00  0.000000D+00  0.000000D+00  0.000000D+00
     72  0.000000D+00  0.000000D+00 -0.171351D+00  0.000000D+00  0.000000D+00
     73  0.000000D+00  0.000000D+00  0.000000D+00  0.000000D+00  0.000000D+00
     74  0.000000D+00  0.000000D+00  0.000000D+00  0.000000D+00  0.000000D+00
               26            27            28            29            30 
     26  0.100000D+01
     27  0.000000D+00  0.100000D+01
     28  0.000000D+00  0.000000D+00  0.100000D+01
     29  0.000000D+00  0.000000D+00  0.000000D+00  0.100000D+01
     30  0.000000D+00  0.000000D+00  0.000000D+00  0.000000D+00  0.100000D+01
     31  0.000000D+00  0.000000D+00  0.000000D+00  0.000000D+00  0.000000D+00
     32  0.000000D+00  0.000000D+00  0.000000D+00  0.000000D+00  0.000000D+00
     33  0.000000D+00  0.000000D+00  0.000000D+00  0.000000D+00  0.000000D+00
     34  0.000000D+00  0.000000D+00  0.000000D+00  0.000000D+00  0.000000D+00
     35  0.391829D+00  0.000000D+00  0.000000D+00  0.000000D+00  0.000000D+00
     36  0.000000D+00  0.000000D+00  0.000000D+00  0.000000D+00  0.000000D+00
     37  0.000000D+00  0.000000D+00  0.000000D+00  0.000000D+00  0.000000D+00
     38  0.273095D+00  0.000000D+00  0.000000D+00  0.000000D+00  0.000000D+00
     39  0.000000D+00  0.000000D+00  0.000000D+00  0.000000D+00  0.000000D+00
     40  0.000000D+00  0.000000D+00  0.000000D+00  0.000000D+00  0.000000D+00
     41  0.000000D+00  0.000000D+00  0.000000D+00  0.000000D+00  0.000000D+00
     42  0.328045D+00  0.000000D+00  0.000000D+00  0.000000D+00  0.000000D+00
     43  0.000000D+00 -0.320584D+00  0.000000D+00  0.000000D+00  0.000000D+00
     44  0.000000D+00  0.000000D+00 -0.320584D+00  0.000000D+00  0.000000D+00
     45  0.000000D+00  0.000000D+00  0.000000D+00  0.000000D+00  0.000000D+00
     46  0.000000D+00  0.000000D+00  0.000000D+00  0.000000D+00  0.000000D+00
     47  0.000000D+00  0.000000D+00  0.000000D+00  0.000000D+00  0.000000D+00
     48  0.000000D+00  0.000000D+00  0.000000D+00  0.000000D+00  0.000000D+00
     49  0.000000D+00  0.000000D+00  0.000000D+00  0.000000D+00  0.000000D+00
     50  0.264173D+00  0.000000D+00  0.000000D+00  0.000000D+00  0.000000D+00
     51  0.000000D+00  0.000000D+00  0.000000D+00  0.000000D+00  0.000000D+00
     52  0.000000D+00  0.000000D+00  0.000000D+00  0.000000D+00  0.000000D+00
     53  0.345403D+00  0.000000D+00  0.000000D+00  0.000000D+00  0.000000D+00
     54  0.000000D+00  0.000000D+00  0.000000D+00  0.000000D+00  0.000000D+00
     55  0.000000D+00  0.000000D+00  0.000000D+00  0.000000D+00  0.000000D+00
     56  0.846696D-01  0.000000D+00  0.000000D+00  0.000000D+00  0.000000D+00
     57  0.000000D+00  0.000000D+00  0.000000D+00  0.000000D+00  0.000000D+00
     58  0.000000D+00  0.000000D+00  0.000000D+00  0.000000D+00  0.000000D+00
     59  0.000000D+00  0.000000D+00  0.000000D+00  0.000000D+00  0.000000D+00
     60 -0.317120D+00  0.000000D+00  0.000000D+00  0.000000D+00  0.000000D+00
     61  0.000000D+00  0.173265D+00  0.000000D+00  0.000000D+00  0.000000D+00
     62  0.000000D+00  0.000000D+00  0.173265D+00  0.000000D+00  0.000000D+00
     63  0.000000D+00  0.000000D+00  0.000000D+00  0.000000D+00  0.000000D+00
     64  0.000000D+00  0.000000D+00  0.000000D+00  0.000000D+00  0.000000D+00
     65 -0.152829D+00  0.000000D+00  0.000000D+00  0.000000D+00  0.000000D+00
     66  0.000000D+00  0.333482D+00  0.000000D+00  0.000000D+00  0.000000D+00
     67  0.000000D+00  0.000000D+00  0.333482D+00  0.000000D+00  0.000000D+00
     68  0.000000D+00  0.000000D+00  0.000000D+00  0.000000D+00  0.000000D+00
     69  0.000000D+00  0.000000D+00  0.000000D+00  0.000000D+00  0.000000D+00
     70  0.153590D+00  0.000000D+00  0.000000D+00  0.000000D+00  0.000000D+00
     71  0.000000D+00 -0.363293D+00  0.000000D+00  0.000000D+00  0.000000D+00
     72  0.000000D+00  0.000000D+00 -0.363293D+00  0.000000D+00  0.000000D+00
     73  0.000000D+00  0.000000D+00  0.000000D+00  0.113085D+00  0.000000D+00
     74  0.000000D+00  0.000000D+00  0.000000D+00  0.000000D+00  0.113085D+00
               31            32            33            34            35 
     31  0.100000D+01
     32  0.706285D+00  0.100000D+01
     33  0.373528D+00  0.788878D+00  0.100000D+01
     34  0.000000D+00  0.000000D+00  0.000000D+00  0.100000D+01
     35  0.000000D+00  0.000000D+00  0.000000D+00  0.000000D+00  0.100000D+01
     36  0.000000D+00  0.000000D+00  0.000000D+00  0.000000D+00  0.000000D+00
     37  0.000000D+00  0.000000D+00  0.000000D+00  0.614924D+00  0.000000D+00
     38  0.000000D+00  0.000000D+00  0.000000D+00  0.000000D+00  0.614924D+00
     39  0.000000D+00  0.000000D+00  0.000000D+00  0.000000D+00  0.000000D+00
     40  0.000000D+00  0.000000D+00  0.000000D+00  0.000000D+00  0.000000D+00
     41  0.000000D+00  0.000000D+00  0.000000D+00  0.000000D+00  0.000000D+00
     42  0.000000D+00  0.000000D+00  0.000000D+00  0.000000D+00  0.000000D+00
     43  0.000000D+00  0.000000D+00  0.000000D+00  0.000000D+00  0.000000D+00
     44  0.000000D+00  0.000000D+00  0.000000D+00  0.000000D+00  0.000000D+00
     45  0.000000D+00  0.965515D-03  0.167733D-01  0.000000D+00  0.000000D+00
     46  0.162121D-02  0.310823D-01  0.148674D+00  0.000000D+00  0.000000D+00
     47  0.187268D-04  0.746812D-02  0.710789D-01  0.000000D+00  0.000000D+00
     48  0.336806D-01  0.123507D+00  0.300859D+00  0.000000D+00  0.000000D+00
     49  0.000000D+00  0.000000D+00  0.000000D+00  0.000000D+00  0.000000D+00
     50  0.000000D+00  0.000000D+00  0.000000D+00  0.000000D+00  0.000000D+00
     51 -0.147341D-04 -0.746813D-02 -0.302343D-01  0.000000D+00  0.000000D+00
     52  0.000000D+00  0.000000D+00  0.000000D+00  0.714092D-03  0.000000D+00
     53  0.000000D+00  0.000000D+00  0.000000D+00  0.000000D+00  0.714092D-03
     54 -0.457428D-02 -0.597291D-01 -0.131774D+00  0.000000D+00  0.000000D+00
     55  0.000000D+00  0.000000D+00  0.000000D+00  0.207362D-01  0.000000D+00
     56  0.000000D+00  0.000000D+00  0.000000D+00  0.000000D+00  0.207362D-01
     57 -0.109445D+00 -0.291853D+00 -0.399248D+00  0.000000D+00  0.000000D+00
     58  0.607397D-04  0.977308D-02  0.134960D-01  0.000000D+00  0.000000D+00
     59  0.000000D+00  0.000000D+00  0.000000D+00 -0.790695D-05  0.000000D+00
     60  0.000000D+00  0.000000D+00  0.000000D+00  0.000000D+00 -0.790695D-05
     61  0.000000D+00  0.000000D+00  0.000000D+00  0.000000D+00  0.000000D+00
     62  0.000000D+00  0.000000D+00  0.000000D+00  0.000000D+00  0.000000D+00
[...]
 CoulSu:  IPart=   11 IPartR=   11 CPU=   -1 GPU=   -1.
 PrismC:  IPart=     4 DynPar=T LinDyn=F Incr=         129 UseFst=F UseS4=T ISplat=2.
 CoulSu:  IPart=    7 IPartR=    7 CPU=   -1 GPU=   -1.
 CoulSu:  IPart=   13 IPartR=   13 CPU=   -1 GPU=   -1.
 PrismC was handed   446831904 working-precision words and   622 shell-pairs
 CoulSu:  IPart=    8 IPartR=    8 CPU=   -1 GPU=   -1.
 Enter PrismC:  IPart= 14 JobTyp=20 DoJE=F Cont=F.
 Enter PrismC:  IPart= 13 JobTyp=20 DoJE=F Cont=F.
 PrismC:  IPart=    14 DynPar=T LinDyn=F Incr=         129 UseFst=F UseS4=T ISplat=2.
 Enter PrismC:  IPart=  3 JobTyp=20 DoJE=F Cont=F.
 CoulSu:  IPart=    6 IPartR=    6 CPU=   -1 GPU=   -1.
 PrismC:  IPart=    13 DynPar=T LinDyn=F Incr=         129 UseFst=F UseS4=T ISplat=2.
 CoulSu:  IPart=    1 IPartR=    1 CPU=   -1 GPU=   -1.
 Enter PrismC:  IPart=  8 JobTyp=20 DoJE=F Cont=F.
 CoulSu:  IPart=    9 IPartR=    9 CPU=   -1 GPU=   -1.
 Enter PrismC:  IPart=  7 JobTyp=20 DoJE=F Cont=F.
 CoulSu:  IPart=   12 IPartR=   12 CPU=   -1 GPU=   -1.
 PrismC:  IPart=     3 DynPar=T LinDyn=F Incr=         129 UseFst=F UseS4=T ISplat=2.
 Enter PrismC:  IPart= 11 JobTyp=20 DoJE=F Cont=F.
 PrismC:  IPart=     8 DynPar=T LinDyn=F Incr=         129 UseFst=F UseS4=T ISplat=2.
 PrismC:  IPart=    11 DynPar=T LinDyn=F Incr=         129 UseFst=F UseS4=T ISplat=2.
 PrismC was handed   446831904 working-precision words and   622 shell-pairs
 Enter PrismC:  IPart=  9 JobTyp=20 DoJE=F Cont=F.
 PrismC:  IPart=     7 DynPar=T LinDyn=F Incr=         129 UseFst=F UseS4=T ISplat=2.
 PrismC was handed   446831904 working-precision words and   622 shell-pairs
 PrismC was handed   446831904 working-precision words and   622 shell-pairs
 PrismC was handed   446831904 working-precision words and   622 shell-pairs
 PrismC:  IPart=     9 DynPar=T LinDyn=F Incr=         129 UseFst=F UseS4=T ISplat=2.
 PrismC was handed   446831904 working-precision words and   622 shell-pairs
 PrismC was handed   446831904 working-precision words and   622 shell-pairs
 Enter PrismC:  IPart=  1 JobTyp=20 DoJE=F Cont=F.
 PrismC was handed   446831904 working-precision words and   622 shell-pairs
 PrismC:  IPart=     1 DynPar=T LinDyn=F Incr=         129 UseFst=F UseS4=T ISplat=2.
 PrismC was handed   446831904 working-precision words and   622 shell-pairs
 Enter PrismC:  IPart=  6 JobTyp=20 DoJE=F Cont=F.
 PrismC was handed   446831904 working-precision words and   622 shell-pairs
 Enter PrismC:  IPart= 12 JobTyp=20 DoJE=F Cont=F.
 PrismC was handed   446831904 working-precision words and   622 shell-pairs
 Enter PrismC:  IPart= 10 JobTyp=20 DoJE=F Cont=F.
 PrismC was handed   446831904 working-precision words and   622 shell-pairs
 PrismC:  IPart=     6 DynPar=T LinDyn=F Incr=         129 UseFst=F UseS4=T ISplat=2.
 PrismC was handed   446831904 working-precision words and   622 shell-pairs
 PrismC:  IPart=    10 DynPar=T LinDyn=F Incr=         129 UseFst=F UseS4=T ISplat=2.
 PrismC was handed   446831904 working-precision words and   622 shell-pairs
 PrismC:  IPart=    12 DynPar=T LinDyn=F Incr=         129 UseFst=F UseS4=T ISplat=2.
 PrismC was handed   446831904 working-precision words and   622 shell-pairs
 IPart= 12 NShTot=       21870 NShNF=       21870 NShFF=           0 MinMC=       7
           NShCPU=       21870 NBCPU=         282 AvBCPU=        77.6
           NShGPU=           0 NBGPU=           0 AvBGPU=         0.0
 CoulSu-ThDecC:  IPartSL=   12    0 NPrtUSL=   15    1 IThBeg=    0 IThEnd=   14 CPU=   -1 GPU=   -1 NThAct=   15.
 IPart=  8 NShTot=        6758 NShNF=        6758 NShFF=           0 MinMC=       7
           NShCPU=        6758 NBCPU=         131 AvBCPU=        51.6
           NShGPU=           0 NBGPU=           0 AvBGPU=         0.0
 CoulSu-ThDecC:  IPartSL=    8    0 NPrtUSL=   15    1 IThBeg=    0 IThEnd=   14 CPU=   -1 GPU=   -1 NThAct=   14.
 IPart=  5 NShTot=        8503 NShNF=        8503 NShFF=           0 MinMC=       7
           NShCPU=        8503 NBCPU=         170 AvBCPU=        50.0
           NShGPU=           0 NBGPU=           0 AvBGPU=         0.0
 IPart=  6 NShTot=       14977 NShNF=       14977 NShFF=           0 MinMC=       7
           NShCPU=       14977 NBCPU=         227 AvBCPU=        66.0
           NShGPU=           0 NBGPU=           0 AvBGPU=         0.0
 CoulSu-ThDecC:  IPartSL=    5    0 NPrtUSL=   15    1 IThBeg=    0 IThEnd=   14 CPU=   -1 GPU=   -1 NThAct=   13.
 CoulSu-ThDecC:  IPartSL=    6    0 NPrtUSL=   15    1 IThBeg=    0 IThEnd=   14 CPU=   -1 GPU=   -1 NThAct=   12.
 IPart=  3 NShTot=       11336 NShNF=       11336 NShFF=           0 MinMC=       7
           NShCPU=       11336 NBCPU=         229 AvBCPU=        49.5
           NShGPU=           0 NBGPU=           0 AvBGPU=         0.0
 IPart= 11 NShTot=       13063 NShNF=       13063 NShFF=           0 MinMC=       7
           NShCPU=       13063 NBCPU=         266 AvBCPU=        49.1
           NShGPU=           0 NBGPU=           0 AvBGPU=         0.0
 CoulSu-ThDecC:  IPartSL=    3    0 NPrtUSL=   15    1 IThBeg=    0 IThEnd=   14 CPU=   -1 GPU=   -1 NThAct=   11.
 IPart=  9 NShTot=        9910 NShNF=        9910 NShFF=           0 MinMC=       7
           NShCPU=        9910 NBCPU=         175 AvBCPU=        56.6
           NShGPU=           0 NBGPU=           0 AvBGPU=         0.0
 IPart= 10 NShTot=        9495 NShNF=        9495 NShFF=           0 MinMC=       7
           NShCPU=        9495 NBCPU=         173 AvBCPU=        54.9
           NShGPU=           0 NBGPU=           0 AvBGPU=         0.0
 IPart= 14 NShTot=        9263 NShNF=        9263 NShFF=           0 MinMC=       7
           NShCPU=        9263 NBCPU=         170 AvBCPU=        54.5
           NShGPU=           0 NBGPU=           0 AvBGPU=         0.0
 CoulSu-ThDecC:  IPartSL=   11    0 NPrtUSL=   15    1 IThBeg=    0 IThEnd=   14 CPU=   -1 GPU=   -1 NThAct=   10.
 IPart=  4 NShTot=       10909 NShNF=       10909 NShFF=           0 MinMC=       7
           NShCPU=       10909 NBCPU=         198 AvBCPU=        55.1
           NShGPU=           0 NBGPU=           0 AvBGPU=         0.0
 CoulSu-ThDecC:  IPartSL=   10    0 NPrtUSL=   15    1 IThBeg=    0 IThEnd=   14 CPU=   -1 GPU=   -1 NThAct=    9.
 CoulSu-ThDecC:  IPartSL=    4    0 NPrtUSL=   15    1 IThBeg=    0 IThEnd=   14 CPU=   -1 GPU=   -1 NThAct=    8.
 CoulSu-ThDecC:  IPartSL=    9    0 NPrtUSL=   15    1 IThBeg=    0 IThEnd=   14 CPU=   -1 GPU=   -1 NThAct=    7.
 IPart= 13 NShTot=       11618 NShNF=       11618 NShFF=           0 MinMC=       7
           NShCPU=       11618 NBCPU=         243 AvBCPU=        47.8
           NShGPU=           0 NBGPU=           0 AvBGPU=         0.0
 CoulSu-ThDecC:  IPartSL=   14    0 NPrtUSL=   15    1 IThBeg=    0 IThEnd=   14 CPU=   -1 GPU=   -1 NThAct=    6.
 IPart=  0 NShTot=        8453 NShNF=        8453 NShFF=           0 MinMC=       7
           NShCPU=        8453 NBCPU=         156 AvBCPU=        54.2
           NShGPU=           0 NBGPU=           0 AvBGPU=         0.0
 CoulSu-ThDecC:  IPartSL=   13    0 NPrtUSL=   15    1 IThBeg=    0 IThEnd=   14 CPU=   -1 GPU=   -1 NThAct=    5.
 IPart=  1 NShTot=        7241 NShNF=        7241 NShFF=           0 MinMC=       7
           NShCPU=        7241 NBCPU=         168 AvBCPU=        43.1
           NShGPU=           0 NBGPU=           0 AvBGPU=         0.0
 CoulSu-ThDecC:  IPartSL=    0    0 NPrtUSL=   15    1 IThBeg=    0 IThEnd=   14 CPU=   -1 GPU=   -1 NThAct=    4.
 CoulSu-ThDecC:  IPartSL=    1    0 NPrtUSL=   15    1 IThBeg=    0 IThEnd=   14 CPU=   -1 GPU=   -1 NThAct=    3.
 IPart=  2 NShTot=       13098 NShNF=       13098 NShFF=           0 MinMC=       7
           NShCPU=       13098 NBCPU=         233 AvBCPU=        56.2
           NShGPU=           0 NBGPU=           0 AvBGPU=         0.0
 CoulSu-ThDecC:  IPartSL=    2    0 NPrtUSL=   15    1 IThBeg=    0 IThEnd=   14 CPU=   -1 GPU=   -1 NThAct=    2.
 IPart=  7 NShTot=        9255 NShNF=        9255 NShFF=           0 MinMC=       7
           NShCPU=        9255 NBCPU=         186 AvBCPU=        49.8
           NShGPU=           0 NBGPU=           0 AvBGPU=         0.0
 CoulSu-ThDecC:  IPartSL=    7    0 NPrtUSL=   15    1 IThBeg=    0 IThEnd=   14 CPU=   -1 GPU=   -1 NThAct=    1.
 CoulSu:  NxtVal=         209497 LenVP=      446831905 MinMC=       7.
 FoFCou EC=  33.9750324103     ENF=  33.9750324103    
 Enegy Component Breakdown at Iteration                       76
 Classical nuclear potential =     19.38378061978021     
 Quantum-classical nuclear potential =     4.617783595860230     
 Quantum nuclear potential =   -7.4940054162198066E-016
 Pure electronic energy =   -111.3762421929221     
 Electron-quantum-nuclear potential =    -5.493208854293210     
 Quantum-nuclear-electron potential =    -5.493208854290227     
 DIIS: error= 9.33D-10 at cycle  76 NSaved=  10.
 B matrix at iteration         76
                 1             2             3             4             5 
      1   0.000000D+00 -0.100000D+01 -0.100000D+01 -0.100000D+01 -0.100000D+01
      2  -0.100000D+01  0.220403D-11  0.919676D-12  0.279057D-12  0.689188D-13
      3  -0.100000D+01  0.919676D-12  0.750817D-12  0.277110D-12  0.558642D-13
      4  -0.100000D+01  0.279057D-12  0.277110D-12  0.247063D-12  0.592395D-13
      5  -0.100000D+01  0.689188D-13  0.558642D-13  0.592395D-13  0.507172D-13
      6  -0.100000D+01  0.185472D-13  0.176591D-13  0.135226D-13  0.152812D-13
      7  -0.100000D+01  0.108446D-13  0.126121D-13  0.680270D-14  0.812200D-14
      8  -0.100000D+01  0.428456D-14  0.497428D-14  0.238527D-14  0.270759D-14
      9  -0.100000D+01  0.874887D-15  0.213897D-14  0.193152D-15  0.686528D-15
     10  -0.100000D+01 -0.232295D-15 -0.405392D-15  0.338437D-15  0.199187D-15
     11  -0.100000D+01  0.314205D-15  0.157625D-14 -0.207610D-15  0.315760D-15
                 6             7             8             9            10 
      1  -0.100000D+01 -0.100000D+01 -0.100000D+01 -0.100000D+01 -0.100000D+01
      2   0.185472D-13  0.108446D-13  0.428456D-14  0.874887D-15 -0.232295D-15
      3   0.176591D-13  0.126121D-13  0.497428D-14  0.213897D-14 -0.405392D-15
      4   0.135226D-13  0.680270D-14  0.238527D-14  0.193152D-15  0.338437D-15
      5   0.152812D-13  0.812200D-14  0.270759D-14  0.686528D-15  0.199187D-15
      6   0.119307D-13  0.849423D-14  0.313481D-14  0.665347D-15  0.167245D-15
      7   0.849423D-14  0.707463D-14  0.315289D-14  0.773383D-15  0.122591D-15
      8   0.313481D-14  0.315289D-14  0.195490D-14  0.721066D-15  0.196330D-15
      9   0.665347D-15  0.773383D-15  0.721066D-15  0.481154D-15  0.235595D-15
     10   0.167245D-15  0.122591D-15  0.196330D-15  0.235595D-15  0.210230D-15
     11   0.318019D-15  0.380705D-15  0.320968D-15  0.221156D-15  0.118248D-15
                11 
      1  -0.100000D+01
      2   0.314205D-15
      3   0.157625D-14
      4  -0.207610D-15
      5   0.315760D-15
      6   0.318019D-15
      7   0.380705D-15
      8   0.320968D-15
      9   0.221156D-15
     10   0.118248D-15
     11   0.142180D-15
 B matrix at iteration         76
                 1             2             3             4             5 
      1   0.000000D+00 -0.100000D+01 -0.100000D+01 -0.100000D+01 -0.100000D+01
      2  -0.100000D+01  0.220403D-11  0.919676D-12  0.279057D-12  0.689188D-13
      3  -0.100000D+01  0.919676D-12  0.750817D-12  0.277110D-12  0.558642D-13
      4  -0.100000D+01  0.279057D-12  0.277110D-12  0.247063D-12  0.592395D-13
      5  -0.100000D+01  0.689188D-13  0.558642D-13  0.592395D-13  0.507172D-13
      6  -0.100000D+01  0.185472D-13  0.176591D-13  0.135226D-13  0.152812D-13
      7  -0.100000D+01  0.108446D-13  0.126121D-13  0.680270D-14  0.812200D-14
      8  -0.100000D+01  0.428456D-14  0.497428D-14  0.238527D-14  0.270759D-14
      9  -0.100000D+01  0.874887D-15  0.213897D-14  0.193152D-15  0.686528D-15
     10  -0.100000D+01 -0.232295D-15 -0.405392D-15  0.338437D-15  0.199187D-15
     11  -0.100000D+01  0.314205D-15  0.157625D-14 -0.207610D-15  0.315760D-15
                 6             7             8             9            10 
      1  -0.100000D+01 -0.100000D+01 -0.100000D+01 -0.100000D+01 -0.100000D+01
      2   0.185472D-13  0.108446D-13  0.428456D-14  0.874887D-15 -0.232295D-15
      3   0.176591D-13  0.126121D-13  0.497428D-14  0.213897D-14 -0.405392D-15
      4   0.135226D-13  0.680270D-14  0.238527D-14  0.193152D-15  0.338437D-15
      5   0.152812D-13  0.812200D-14  0.270759D-14  0.686528D-15  0.199187D-15
      6   0.119307D-13  0.849423D-14  0.313481D-14  0.665347D-15  0.167245D-15
      7   0.849423D-14  0.707463D-14  0.315289D-14  0.773383D-15  0.122591D-15
      8   0.313481D-14  0.315289D-14  0.195490D-14  0.721066D-15  0.196330D-15
      9   0.665347D-15  0.773383D-15  0.721066D-15  0.481154D-15  0.235595D-15
     10   0.167245D-15  0.122591D-15  0.196330D-15  0.235595D-15  0.210230D-15
     11   0.318019D-15  0.380705D-15  0.320968D-15  0.221156D-15  0.118248D-15
                11 
      1  -0.100000D+01
      2   0.314205D-15
      3   0.157625D-14
      4  -0.207610D-15
      5   0.315760D-15
      6   0.318019D-15
      7   0.380705D-15
      8   0.320968D-15
      9   0.221156D-15
     10   0.118248D-15
     11   0.142180D-15
 NSaved=10 IEnMin= 1 EnMin=  0.00000000000000     IErMin= 8 ErrMin= 9.20D-10
 ErrMax= 9.33D-10  0.00D+00 EMaxC= 1.00D+00 BMatC= 1.42D-16 BMatP= 2.10D-16
 IDIUse=1 WtCom= 1.00D+00 WtEn= 0.00D+00
 Inv2:  IOpt= 1 Iter= 1 AM= 2.05D+02 Conv= 1.00D-12.
 Inv2:  IOpt= 1 Iter= 2 AM= 2.23D-12 Conv= 1.00D-12.
 Inv2:  IOpt= 1 Iter= 3 AM= 4.71D-26 Conv= 1.00D-12.
 Coeff-Com:  0.688D-03-0.233D-02 0.392D-02-0.128D-01 0.111D+00-0.225D+00
 Coeff-Com:  0.279D+00-0.753D+00 0.300D+00 0.130D+01
 Coeff-En:   0.000D+00 0.000D+00 0.000D+00 0.000D+00 0.000D+00 0.000D+00
 Coeff-En:   0.000D+00 0.000D+00 0.000D+00 0.000D+00
 Coeff:      0.688D-03-0.233D-02 0.392D-02-0.128D-01 0.111D+00-0.225D+00
 Coeff:      0.279D+00-0.753D+00 0.300D+00 0.130D+01
 DSYEVD-2 returned Info=         149 IAlg= 4 N=    74 NDim=    74 NE2=  6703115574 trying  DSYEV.
 Has Electronic Subsystem Converged:   T
 Has Protonic Subsystem Converged:   T
 Simultaneous Optimization Iteration #                       76
 The Energy for This Iteration is:    -92.86788683157489     
 TOTAL ENERGY HAS CONVERGED!!!
 NEO-SCF Converged After Iteration #                       76
 E= -92.8678868315749    
 Elec Eigen 
                 1             2 
      1  -0.155938D+02  0.000000D+00
      2  -0.112849D+02  0.000000D+00
      3  -0.123647D+01  0.000000D+00
      4  -0.797493D+00  0.000000D+00
      5  -0.578322D+00  0.000000D+00
      6  -0.495754D+00  0.000000D+00
      7  -0.495754D+00  0.000000D+00
      8   0.138636D+00  0.000000D+00
      9   0.169187D+00  0.000000D+00
     10   0.169187D+00  0.000000D+00
     11   0.243086D+00  0.000000D+00
     12   0.447816D+00  0.000000D+00
     13   0.447816D+00  0.000000D+00
     14   0.478147D+00  0.000000D+00
     15   0.564200D+00  0.000000D+00
     16   0.623361D+00  0.000000D+00
     17   0.715749D+00  0.000000D+00
     18   0.715749D+00  0.000000D+00
     19   0.811831D+00  0.000000D+00
     20   0.811831D+00  0.000000D+00
     21   0.860886D+00  0.000000D+00
     22   0.860886D+00  0.000000D+00
     23   0.982243D+00  0.000000D+00
     24   0.119968D+01  0.000000D+00
     25   0.138708D+01  0.000000D+00
     26   0.138708D+01  0.000000D+00
     27   0.142320D+01  0.000000D+00
     28   0.142320D+01  0.000000D+00
     29   0.160195D+01  0.000000D+00
     30   0.178422D+01  0.000000D+00
     31   0.192437D+01  0.000000D+00
     32   0.192437D+01  0.000000D+00
     33   0.208547D+01  0.000000D+00
     34   0.233546D+01  0.000000D+00
     35   0.233546D+01  0.000000D+00
     36   0.254291D+01  0.000000D+00
     37   0.288422D+01  0.000000D+00
     38   0.293062D+01  0.000000D+00
     39   0.293062D+01  0.000000D+00
     40   0.293127D+01  0.000000D+00
     41   0.293127D+01  0.000000D+00
     42   0.303942D+01  0.000000D+00
     43   0.303942D+01  0.000000D+00
     44   0.323240D+01  0.000000D+00
     45   0.323240D+01  0.000000D+00
     46   0.345648D+01  0.000000D+00
     47   0.345648D+01  0.000000D+00
     48   0.346932D+01  0.000000D+00
     49   0.357500D+01  0.000000D+00
     50   0.357500D+01  0.000000D+00
     51   0.382615D+01  0.000000D+00
     52   0.382615D+01  0.000000D+00
     53   0.404016D+01  0.000000D+00
     54   0.430054D+01  0.000000D+00
     55   0.430054D+01  0.000000D+00
     56   0.432865D+01  0.000000D+00
     57   0.432865D+01  0.000000D+00
     58   0.437059D+01  0.000000D+00
     59   0.492910D+01  0.000000D+00
     60   0.492910D+01  0.000000D+00
     61   0.495725D+01  0.000000D+00
     62   0.495725D+01  0.000000D+00
     63   0.505463D+01  0.000000D+00
     64   0.505463D+01  0.000000D+00
     65   0.509205D+01  0.000000D+00
     66   0.549555D+01  0.000000D+00
     67   0.567596D+01  0.000000D+00
     68   0.567596D+01  0.000000D+00
     69   0.615210D+01  0.000000D+00
     70   0.663860D+01  0.000000D+00
     71   0.663860D+01  0.000000D+00
     72   0.696600D+01  0.000000D+00
     73   0.870045D+01  0.000000D+00
     74   0.153699D+02  0.000000D+00
 Prot Eigen 
                 1             2 
      1  -0.875425D+00  0.000000D+00
      2   0.665832D+00  0.000000D+00
      3   0.116940D+01  0.000000D+00
      4   0.116940D+01  0.000000D+00
      5   0.119739D+01  0.000000D+00
      6   0.139824D+01  0.000000D+00
      7   0.139824D+01  0.000000D+00
      8   0.141068D+01  0.000000D+00
      9   0.141068D+01  0.000000D+00
     10   0.141610D+01  0.000000D+00
     11   0.152763D+01  0.000000D+00
     12   0.211128D+01  0.000000D+00
     13   0.211128D+01  0.000000D+00
     14   0.213606D+01  0.000000D+00
     15   0.277017D+01  0.000000D+00
     16   0.277017D+01  0.000000D+00
     17   0.277640D+01  0.000000D+00
     18   0.277640D+01  0.000000D+00
     19   0.277895D+01  0.000000D+00
     20   0.312483D+01  0.000000D+00
     21   0.324571D+01  0.000000D+00
     22   0.324571D+01  0.000000D+00
     23   0.328652D+01  0.000000D+00
 Leave Link  502 at Wed Jun 15 18:23:00 2022, MaxMem=  6710886400 cpu:             424.3 elap:              40.3
 (Enter /home/software/gaussian/gdv/j19/gdv/l601.exe)
 Copying SCF densities to generalized density rwf, IOpCl=** IROHF=0.
 Alpha  occ. eigenvalues --  -15.59379 -11.28488  -1.23647  -0.79749  -0.57832
 Alpha  occ. eigenvalues --   -0.49575  -0.49575
 Alpha virt. eigenvalues --    0.13864   0.16919   0.16919   0.24309   0.44782
 Alpha virt. eigenvalues --    0.44782   0.47815   0.56420   0.62336   0.71575
 Alpha virt. eigenvalues --    0.71575   0.81183   0.81183   0.86089   0.86089
 Alpha virt. eigenvalues --    0.98224   1.19968   1.38708   1.38708   1.42320
 Alpha virt. eigenvalues --    1.42320   1.60195   1.78422   1.92437   1.92437
 Alpha virt. eigenvalues --    2.08547   2.33546   2.33546   2.54291   2.88422
 Alpha virt. eigenvalues --    2.93062   2.93062   2.93127   2.93127   3.03942
 Alpha virt. eigenvalues --    3.03942   3.23240   3.23240   3.45648   3.45648
 Alpha virt. eigenvalues --    3.46932   3.57500   3.57500   3.82615   3.82615
 Alpha virt. eigenvalues --    4.04016   4.30054   4.30054   4.32865   4.32865
 Alpha virt. eigenvalues --    4.37059   4.92910   4.92910   4.95725   4.95725
 Alpha virt. eigenvalues --    5.05463   5.05463   5.09205   5.49555   5.67596
 Alpha virt. eigenvalues --    5.67596   6.15210   6.63860   6.63860   6.96600
 Alpha virt. eigenvalues --    8.70045  15.36994
 Nuclear orbitals not supported in not supported in RdDen.
 Error termination via Lnk1e in /home/software/gaussian/gdv/j19/gdv/l601.exe at Wed Jun 15 18:23:00 2022.
 Job cpu time:       0 days  0 hours  7 minutes 13.7 seconds.
 Elapsed time:       0 days  0 hours  0 minutes 42.1 seconds.
 File lengths (MBytes):  RWF=      6 Int=      0 D2E=      0 Chk=      1 Scr=      1
