 Entering Gaussian System, Link 0=gdv
 Input=hcn_ccpvtz_pb4f2.gjf
 Output=hcn_ccpvtz_pb4f2.log
 Initial command:
 /home/software/gaussian/gdv/j19/gdv/l1.exe "/home/aodongliu/GauScr/Gau-422098.inp" -scrdir="/home/aodongliu/GauScr/" -exedir="/home/aodongliu/neo_scf/exe-dir:/home/software/gaussian/gdv/j19/gdv/bsd:/home/software/gaussian/gdv/j19/gdv/local:/home/software/gaussian/gdv/j19/gdv/extras:/home/software/gaussian/gdv/j19/gdv"
 Entering Link 1 = /home/software/gaussian/gdv/j19/gdv/l1.exe PID=    422099.
  
 Copyright (c) 1988-2021, Gaussian, Inc.  All Rights Reserved.
  
 This is the private, development version of
 the Gaussian(R) DV system of programs. It is based on
 the Gaussian(R) 16 system (copyright 2016, Gaussian, Inc.),
 the Gaussian(R) 09 system (copyright 2009, Gaussian, Inc.),
 the Gaussian(R) 03 system (copyright 2003, Gaussian, Inc.),
 the Gaussian(R) 98 system (copyright 1998, Gaussian, Inc.),
 the Gaussian(R) 94 system (copyright 1995, Gaussian, Inc.),
 the Gaussian 92(TM) system (copyright 1992, Gaussian, Inc.),
 the Gaussian 90(TM) system (copyright 1990, Gaussian, Inc.),
 the Gaussian 88(TM) system (copyright 1988, Gaussian, Inc.),
 the Gaussian 86(TM) system (copyright 1986, Carnegie Mellon
 University), and the Gaussian 82(TM) system (copyright 1983,
 Carnegie Mellon University). Gaussian is a federally registered
 trademark of Gaussian, Inc.
  
 This software contains proprietary and confidential information,
 including trade secrets, belonging to Gaussian, Inc.
  
 This software is provided under written license and may be
 used, copied, transmitted, or stored only in accord with that
 written license.
  
 The following legend is applicable only to US Government
 contracts under FAR:
  
                    RESTRICTED RIGHTS LEGEND
  
 Use, reproduction and disclosure by the US Government is
 subject to restrictions as set forth in subparagraphs (a)
 and (c) of the Commercial Computer Software - Restricted
 Rights clause in FAR 52.227-19.
  
 Gaussian, Inc.
 340 Quinnipiac St., Bldg. 40, Wallingford CT 06492
  
  
 ---------------------------------------------------------------
 Warning -- This program may not be used in any manner that
 competes with the business of Gaussian, Inc. or will provide
 assistance to any competitor of Gaussian, Inc.  The licensee
 of this program is prohibited from giving any competitor of
 Gaussian, Inc. access to this program.  By using this program,
 the user acknowledges that Gaussian, Inc. is engaged in the
 business of creating and licensing software in the field of
 computational chemistry and represents and warrants to the
 licensee that it is not a competitor of Gaussian, Inc. and that
 it will not use this program in any manner prohibited above.
 ---------------------------------------------------------------
  

 Cite this work as:
 Gaussian Development Version, Revision J.19,
 M. J. Frisch, G. W. Trucks, H. B. Schlegel, G. E. Scuseria, 
 M. A. Robb, J. R. Cheeseman, G. Scalmani, V. Barone, 
 G. A. Petersson, H. Nakatsuji, X. Li, A. V. Marenich, M. Caricato, 
 J. Bloino, B. G. Janesko, J. Zheng, R. Gomperts, B. Mennucci, 
 H. P. Hratchian, J. V. Ortiz, A. F. Izmaylov, J. L. Sonnenberg, 
 D. Williams-Young, F. Ding, F. Lipparini, F. Egidi, J. Goings, 
 B. Peng, A. Petrone, T. Henderson, D. Ranasinghe, V. G. Zakrzewski, 
 J. Gao, N. Rega, G. Zheng, W. Liang, M. Hada, M. Ehara, K. Toyota, 
 R. Fukuda, J. Hasegawa, M. Ishida, T. Nakajima, Y. Honda, O. Kitao, 
 H. Nakai, T. Vreven, K. Throssell, J. A. Montgomery, Jr., 
 J. E. Peralta, F. Ogliaro, M. J. Bearpark, J. J. Heyd, 
 E. N. Brothers, K. N. Kudin, V. N. Staroverov, T. A. Keith, 
 R. Kobayashi, J. Normand, K. Raghavachari, A. P. Rendell, 
 J. C. Burant, S. S. Iyengar, J. Tomasi, M. Cossi, J. M. Millam, 
 M. Klene, C. Adamo, R. Cammi, J. W. Ochterski, R. L. Martin, 
 K. Morokuma, O. Farkas, J. B. Foresman, and D. J. Fox, 
 Gaussian, Inc., Wallingford CT, 2020.
 
 ******************************************
 Gaussian DV:  ES64L-GDVRevJ.19 27-Nov-2021
                15-Jun-2022 
 ******************************************
 %mem=50gb
 %nproc=15
 Will use up to   15 processors via shared memory.
 ----------------------------------------------------------------------
 #p rhf/cc-pvtz test neo=gen gfinput guess=print # iop33(3=2,4=2,5=2) i
 op(5/73=0,5/81=0) nosymm
 ----------------------------------------------------------------------
 1/37=210000000,38=1,172=1/1;
 2/12=2,15=1/2;
 3/5=16,6=1,11=1,24=10,25=1,30=1,33=2,116=1,187=7/1,2,3;
 4/10=1,33=2/1;
 5/5=2,33=2,38=5/2;
 6/7=2,8=2,9=2,10=2,28=1/1;
 99/5=1,9=1/99;
 Leave Link    1 at Wed Jun 15 18:24:11 2022, MaxMem=  6710886400 cpu:               0.1 elap:               0.0
 (Enter /home/software/gaussian/gdv/j19/gdv/l101.exe)
 ---
 hcn
 ---
 Symbolic Z-matrix:
 Charge =  0 Multiplicity = 1
 c                     0.        0.       -0.49687 
 h                     0.        0.       -1.56687 
 n                     0.        0.        0.64973 
 
 ITRead=  0  0  0
 MicOpt= -1 -1 -1
 NAtoms=      3 NQM=        3 NQMF=       0 NMMI=      0 NMMIF=      0
                NMic=       0 NMicF=      0.
                    Isotopes and Nuclear Properties:
 (Nuclear quadrupole moments (NQMom) in fm**2, nuclear magnetic moments (NMagM)
  in nuclear magnetons)

  Atom         1           2           3
 IAtWgt=          12           1          14
 AtmWgt=  12.0000000   1.0078250  14.0030740
 NucSpn=           0           1           2
 AtZEff=   0.0000000   0.0000000   0.0000000
 NQMom=    0.0000000   0.0000000   2.0440000
 NMagM=    0.0000000   2.7928460   0.4037610
 AtZNuc=   6.0000000   1.0000000   7.0000000
 Leave Link  101 at Wed Jun 15 18:24:12 2022, MaxMem=  6710886400 cpu:               0.5 elap:               0.4
 (Enter /home/software/gaussian/gdv/j19/gdv/l202.exe)
                          Input orientation:                          
 ---------------------------------------------------------------------
 Center     Atomic      Atomic             Coordinates (Angstroms)
 Number     Number       Type             X           Y           Z
 ---------------------------------------------------------------------
      1          6           0        0.000000    0.000000   -0.496871
      2          1           0        0.000000    0.000000   -1.566871
      3          7           0        0.000000    0.000000    0.649729
 ---------------------------------------------------------------------
                    Distance matrix (angstroms):
                    1          2          3
     1  C    0.000000
     2  H    1.070000   0.000000
     3  N    1.146600   2.216600   0.000000
 Symmetry turned off by external request.
 Stoichiometry    CHN
 Framework group  C*V[C*(HCN)]
 Deg. of freedom     2
 Full point group                 C*V     NOp   4
 Rotational constants (GHZ):           0.0000000          44.8885632          44.8885632
 Leave Link  202 at Wed Jun 15 18:24:12 2022, MaxMem=  6710886400 cpu:               0.1 elap:               0.0
 (Enter /home/software/gaussian/gdv/j19/gdv/l301.exe)
                         Coordinates in L301:                         
 ---------------------------------------------------------------------
 Center     Atomic      Atomic             Coordinates (Angstroms)
 Number     Number       Type             X           Y           Z
 ---------------------------------------------------------------------
      1          6           0        0.000000    0.000000   -0.496871
      2          1           0        0.000000    0.000000   -1.566871
      3          7           0        0.000000    0.000000    0.649729
 ---------------------------------------------------------------------
 Standard basis: CC-pVTZ (5D, 7F)
 FixB: optimizing general contractions.
 Ernie: Thresh=  0.10000D-02 Tol=  0.10000D-05 Strict=F.
 IA=     1 ShT= 0 ShC= 0 NL=   4 NS=   2.
         I=   1 JX=   1 NP=   8
         I=   2 JX=   2 NP=   8
         I=   3 JX=   3 NP=   1
         I=   4 JX=   4 NP=   1
 IA=     1 L=0 SC=0 ISt=    1 NBk=    2 NP=    8 IndPr=    0.
 DoElim1:  L=0 select primitive    2 from    2 using    1 C= 4.11D-03
 DoElim2:  L=0 select primitive    8 from    1 using    2 C= 5.97D-01
 Delete L=0 primitive    2 from    2 C=  5.67D-20.
 Delete L=0 primitive    1 from    2 C=  4.90D-07.
 Delete L=0 primitive    8 from    1 C=  1.83D-19.
 IA=     1 L=0 SC=0 ISt=    0 NBk=    0 NP=    0 IndPr=   13.
 IA=     1 ShT= 1 ShC= 1 NL=   3 NS=   2.
         I=   1 JX=   5 NP=   3
         I=   2 JX=   6 NP=   1
         I=   3 JX=   7 NP=   1
 IA=     1 L=1 SC=1 ISt=    0 NBk=    0 NP=    0 IndPr=    0.
 IA=     1 ShT= 2 ShC= 2 NL=   2 NS=   2.
         I=   1 JX=   8 NP=   1
         I=   2 JX=   9 NP=   1
 IA=     1 L=2 SC=2 ISt=    0 NBk=    0 NP=    0 IndPr=    0.
 IA=     1 ShT= 3 ShC= 3 NL=   1 NS=   1.
         I=   1 JX=   1 NP=   8
 IA=     1 L=3 SC=3 ISt=    0 NBk=    0 NP=    0 IndPr=    0.
 IA=     2 ShT= 0 ShC= 0 NL=   3 NS=   2.
         I=   1 JX=  11 NP=   3
         I=   2 JX=  12 NP=   1
         I=   3 JX=  13 NP=   1
 IA=     2 L=0 SC=0 ISt=    0 NBk=    0 NP=    0 IndPr=    0.
 IA=     2 ShT= 1 ShC= 1 NL=   2 NS=   2.
         I=   1 JX=  14 NP=   1
         I=   2 JX=  15 NP=   1
 IA=     2 L=1 SC=1 ISt=    0 NBk=    0 NP=    0 IndPr=    0.
 IA=     2 ShT= 2 ShC= 2 NL=   1 NS=   1.
         I=   1 JX=   1 NP=   8
 IA=     2 L=2 SC=2 ISt=    0 NBk=    0 NP=    0 IndPr=    0.
 IA=     3 ShT= 0 ShC= 0 NL=   4 NS=   2.
         I=   1 JX=  17 NP=   8
         I=   2 JX=  18 NP=   8
         I=   3 JX=  19 NP=   1
         I=   4 JX=  20 NP=   1
 IA=     3 L=0 SC=0 ISt=    1 NBk=    2 NP=    8 IndPr=    0.
 DoElim1:  L=0 select primitive    2 from    2 using    1 C= 4.04D-03
 DoElim2:  L=0 select primitive    8 from    1 using    2 C= 5.98D-01
 Delete L=0 primitive    2 from    2 C=  7.94D-21.
 Delete L=0 primitive    1 from    2 C=  7.19D-07.
 Delete L=0 primitive    8 from    1 C=  2.29D-19.
 IA=     3 L=0 SC=0 ISt=    0 NBk=    0 NP=    0 IndPr=   13.
 IA=     3 ShT= 1 ShC= 1 NL=   3 NS=   2.
         I=   1 JX=  21 NP=   3
         I=   2 JX=  22 NP=   1
         I=   3 JX=  23 NP=   1
 IA=     3 L=1 SC=1 ISt=    0 NBk=    0 NP=    0 IndPr=    0.
 IA=     3 ShT= 2 ShC= 2 NL=   2 NS=   2.
         I=   1 JX=  24 NP=   1
         I=   2 JX=  25 NP=   1
 IA=     3 L=2 SC=2 ISt=    0 NBk=    0 NP=    0 IndPr=    0.
 IA=     3 ShT= 3 ShC= 3 NL=   1 NS=   1.
         I=   1 JX=   1 NP=   8
 IA=     3 L=3 SC=3 ISt=    0 NBk=    0 NP=    0 IndPr=    0.
 Ernie:  6 primitive shells out of 60 were deleted.
    74 AO functions
 Electric field displacement of shell     1 is  0.00D+00
 Electric field displacement of shell     2 is  0.00D+00
 Electric field displacement of shell     3 is  0.00D+00
 Electric field displacement of shell     4 is  0.00D+00
 Electric field displacement of shell     5 is  0.00D+00
 Electric field displacement of shell     6 is  0.00D+00
 Electric field displacement of shell     7 is  0.00D+00
 Electric field displacement of shell     8 is  0.00D+00
 Electric field displacement of shell     9 is  0.00D+00
 Electric field displacement of shell    10 is  0.00D+00
 Electric field displacement of shell    11 is  0.00D+00
 Electric field displacement of shell    12 is  0.00D+00
 Electric field displacement of shell    13 is  0.00D+00
 Electric field displacement of shell    14 is  0.00D+00
 Electric field displacement of shell    15 is  0.00D+00
 Electric field displacement of shell    16 is  0.00D+00
 Electric field displacement of shell    17 is  0.00D+00
 Electric field displacement of shell    18 is  0.00D+00
 Electric field displacement of shell    19 is  0.00D+00
 Electric field displacement of shell    20 is  0.00D+00
 Electric field displacement of shell    21 is  0.00D+00
 Electric field displacement of shell    22 is  0.00D+00
 Electric field displacement of shell    23 is  0.00D+00
 Electric field displacement of shell    24 is  0.00D+00
 Electric field displacement of shell    25 is  0.00D+00
 Electric field displacement of shell    26 is  0.00D+00
 AO basis set in the form of general basis input (Overlap normalization):
      1 0
 S   7 1.00       0.000000000000
      0.8236000000D+04  0.5419783203D-03
      0.1235000000D+04  0.4192873817D-02
      0.2808000000D+03  0.2152216205D-01
      0.7927000000D+02  0.8353432195D-01
      0.2559000000D+02  0.2395828457D+00
      0.8997000000D+01  0.4428528419D+00
      0.3319000000D+01  0.3517995618D+00
 S   6 1.00       0.000000000000
      0.2808000000D+03 -0.5949224937D-04
      0.7927000000D+02 -0.1148158310D-02
      0.2559000000D+02 -0.1001913745D-01
      0.8997000000D+01 -0.6121949230D-01
      0.3319000000D+01 -0.1732698541D+00
      0.3643000000D+00  0.1072915192D+01
 S   1 1.00       0.000000000000
      0.9059000000D+00  0.1000000000D+01
 S   1 1.00       0.000000000000
      0.1285000000D+00  0.1000000000D+01
 P   3 1.00       0.000000000000
      0.1871000000D+02  0.3942638716D-01
      0.4133000000D+01  0.2440889849D+00
      0.1200000000D+01  0.8154920089D+00
 P   1 1.00       0.000000000000
      0.3827000000D+00  0.1000000000D+01
 P   1 1.00       0.000000000000
      0.1209000000D+00  0.1000000000D+01
 D   1 1.00       0.000000000000
      0.1097000000D+01  0.1000000000D+01
 D   1 1.00       0.000000000000
      0.3180000000D+00  0.1000000000D+01
 F   1 1.00       0.000000000000
      0.7610000000D+00  0.1000000000D+01
 ****
      2 0
 S   3 1.00       0.000000000000
      0.3387000000D+02  0.2549486323D-01
      0.5095000000D+01  0.1903627659D+00
      0.1159000000D+01  0.8521620222D+00
 S   1 1.00       0.000000000000
      0.3258000000D+00  0.1000000000D+01
 S   1 1.00       0.000000000000
      0.1027000000D+00  0.1000000000D+01
 P   1 1.00       0.000000000000
      0.1407000000D+01  0.1000000000D+01
 P   1 1.00       0.000000000000
      0.3880000000D+00  0.1000000000D+01
 D   1 1.00       0.000000000000
      0.1057000000D+01  0.1000000000D+01
 ****
      3 0
 S   7 1.00       0.000000000000
      0.1142000000D+05  0.5345638595D-03
      0.1712000000D+04  0.4134356596D-02
      0.3893000000D+03  0.2123353578D-01
      0.1100000000D+03  0.8250062241D-01
      0.3557000000D+02  0.2381388709D+00
      0.1254000000D+02  0.4425515469D+00
      0.4644000000D+01  0.3537574220D+00
 S   6 1.00       0.000000000000
      0.3893000000D+03 -0.4898673501D-04
      0.1100000000D+03 -0.1195273230D-02
      0.3557000000D+02 -0.1034907144D-01
      0.1254000000D+02 -0.6486801896D-01
      0.4644000000D+01 -0.1715524774D+00
      0.5118000000D+00  0.1072895678D+01
 S   1 1.00       0.000000000000
      0.1293000000D+01  0.1000000000D+01
 S   1 1.00       0.000000000000
      0.1787000000D+00  0.1000000000D+01
 P   3 1.00       0.000000000000
      0.2663000000D+02  0.3980721230D-01
      0.5948000000D+01  0.2490026605D+00
      0.1742000000D+01  0.8104797267D+00
 P   1 1.00       0.000000000000
      0.5550000000D+00  0.1000000000D+01
 P   1 1.00       0.000000000000
      0.1725000000D+00  0.1000000000D+01
 D   1 1.00       0.000000000000
      0.1654000000D+01  0.1000000000D+01
 D   1 1.00       0.000000000000
      0.4690000000D+00  0.1000000000D+01
 F   1 1.00       0.000000000000
      0.1093000000D+01  0.1000000000D+01
 ****
  
 LdAtmC:  AtmChg=     6.000000     1.000000     7.000000
 AtDip 
                 1             2             3 
      1   0.000000D+00  0.000000D+00  0.000000D+00
      2   0.000000D+00  0.000000D+00  0.000000D+00
      3   0.000000D+00  0.000000D+00  0.000000D+00
 AtQua 
                 1             2             3             4             5 
      1   0.000000D+00  0.000000D+00  0.000000D+00  0.000000D+00  0.000000D+00
      2   0.000000D+00  0.000000D+00  0.000000D+00  0.000000D+00  0.000000D+00
      3   0.000000D+00  0.000000D+00  0.000000D+00  0.000000D+00  0.000000D+00
                 6 
      1   0.000000D+00
      2   0.000000D+00
      3   0.000000D+00
 AtPol 
                 1 
      1   0.000000D+00
      2   0.000000D+00
      3   0.000000D+00
 GetPMM: IRwPM=    824 LRwPM=      0 LPMAll=      2
 General NEO basis read from cards:  (5D, 7F)
 Centers:       2
 S 1 1.00
     Exponent=  2.8950000000D+01 Coefficients=  1.0000000000D+00
 S 1 1.00
     Exponent=  1.7943000000D+01 Coefficients=  1.0000000000D+00
 S 1 1.00
     Exponent=  1.0645000000D+01 Coefficients=  1.0000000000D+00
 S 1 1.00
     Exponent=  5.9730000000D+00 Coefficients=  1.0000000000D+00
 P 1 1.00
     Exponent=  2.3308000000D+01 Coefficients=  1.0000000000D+00
 P 1 1.00
     Exponent=  1.4701000000D+01 Coefficients=  1.0000000000D+00
 P 1 1.00
     Exponent=  7.6040000000D+00 Coefficients=  1.0000000000D+00
 D 1 1.00
     Exponent=  1.9787000000D+01 Coefficients=  1.0000000000D+00
 D 1 1.00
     Exponent=  9.0110000000D+00 Coefficients=  1.0000000000D+00
 F 1 1.00
     Exponent=  2.0985000000D+01 Coefficients=  1.0000000000D+00
 F 1 1.00
     Exponent=  1.0914000000D+01 Coefficients=  1.0000000000D+00
 ****
    37 NEO functions
 Electric field displacement of shell     1 is  0.00D+00
 Electric field displacement of shell     2 is  0.00D+00
 Electric field displacement of shell     3 is  0.00D+00
 Electric field displacement of shell     4 is  0.00D+00
 Electric field displacement of shell     5 is  0.00D+00
 Electric field displacement of shell     6 is  0.00D+00
 Electric field displacement of shell     7 is  0.00D+00
 Electric field displacement of shell     8 is  0.00D+00
 Electric field displacement of shell     9 is  0.00D+00
 Electric field displacement of shell    10 is  0.00D+00
 Electric field displacement of shell    11 is  0.00D+00
 NEO basis set in the form of general basis input (Overlap normalization):
      2 0
 S   1 1.00       0.000000000000
      0.2895000000D+02  0.1000000000D+01
 S   1 1.00       0.000000000000
      0.1794300000D+02  0.1000000000D+01
 S   1 1.00       0.000000000000
      0.1064500000D+02  0.1000000000D+01
 S   1 1.00       0.000000000000
      0.5973000000D+01  0.1000000000D+01
 P   1 1.00       0.000000000000
      0.2330800000D+02  0.1000000000D+01
 P   1 1.00       0.000000000000
      0.1470100000D+02  0.1000000000D+01
 P   1 1.00       0.000000000000
      0.7604000000D+01  0.1000000000D+01
 D   1 1.00       0.000000000000
      0.1978700000D+02  0.1000000000D+01
 D   1 1.00       0.000000000000
      0.9011000000D+01  0.1000000000D+01
 F   1 1.00       0.000000000000
      0.2098500000D+02  0.1000000000D+01
 F   1 1.00       0.000000000000
      0.1091400000D+02  0.1000000000D+01
 ****
  
 Using NEO mass 1836.152656 electrons.
 AtZEff=     -3.6000000     -1.0000000     -4.5500000
    74 basis functions,   121 primitive gaussians,    45 cartesian basis functions
     7 alpha electrons        7 beta electrons
       nuclear repulsion energy        19.3837806198 Hartrees.
 IS=     1 IAt=     1 ISR=     1 T=0 IP=      1 IndIP=      1 IndIPD=      0 C=  3.339483D-01  0.000000D+00                             NZ=T
 IS=     1 IAt=     1 ISR=     1 T=0 IP=      2 IndIP=      2 IndIPD=      1 C=  6.225469D-01  0.000000D+00                             NZ=T
 IS=     1 IAt=     1 ISR=     1 T=0 IP=      3 IndIP=      3 IndIPD=      2 C=  1.052189D+00  0.000000D+00                             NZ=T
 IS=     1 IAt=     1 ISR=     1 T=0 IP=      4 IndIP=      4 IndIPD=      3 C=  1.581637D+00  0.000000D+00                             NZ=T
 IS=     1 IAt=     1 ISR=     1 T=0 IP=      5 IndIP=      5 IndIPD=      4 C=  1.942757D+00  0.000000D+00                             NZ=T
 IS=     1 IAt=     1 ISR=     1 T=0 IP=      6 IndIP=      6 IndIPD=      5 C=  1.639619D+00  0.000000D+00                             NZ=T
 IS=     1 IAt=     1 ISR=     1 T=0 IP=      7 IndIP=      7 IndIPD=      6 C=  6.165394D-01  0.000000D+00                             NZ=T
 IS=     2 IAt=     1 ISR=     2 T=0 IP=      1 IndIP=      8 IndIPD=      0 C= -2.908495D-03  0.000000D+00                             NZ=T
 IS=     2 IAt=     1 ISR=     2 T=0 IP=      2 IndIP=      9 IndIPD=      1 C= -2.173920D-02  0.000000D+00                             NZ=T
 IS=     2 IAt=     1 ISR=     2 T=0 IP=      3 IndIP=     10 IndIPD=      2 C= -8.124434D-02  0.000000D+00                             NZ=T
 IS=     2 IAt=     1 ISR=     2 T=0 IP=      4 IndIP=     11 IndIPD=      3 C= -2.266591D-01  0.000000D+00                             NZ=T
 IS=     2 IAt=     1 ISR=     2 T=0 IP=      5 IndIP=     12 IndIPD=      4 C= -3.036607D-01  0.000000D+00                             NZ=T
 IS=     2 IAt=     1 ISR=     2 T=0 IP=      6 IndIP=     13 IndIPD=      5 C=  3.585666D-01  0.000000D+00                             NZ=T
 IS=     3 IAt=     1 ISR=     3 T=0 IP=      1 IndIP=     14 IndIPD=      0 C=  6.617901D-01  0.000000D+00                             NZ=T
 IS=     4 IAt=     1 ISR=     4 T=0 IP=      1 IndIP=     15 IndIPD=      0 C=  1.529634D-01  0.000000D+00                             NZ=T
 IS=     5 IAt=     1 ISR=     5 T=1 IP=      1 IndIP=     16 IndIPD=      0 C=  0.000000D+00  2.186852D+00                             NZ=T
 IS=     5 IAt=     1 ISR=     5 T=1 IP=      2 IndIP=     17 IndIPD=      1 C=  0.000000D+00  2.050312D+00                             NZ=T
 IS=     5 IAt=     1 ISR=     5 T=1 IP=      3 IndIP=     18 IndIPD=      2 C=  0.000000D+00  1.459945D+00                             NZ=T
 IS=     6 IAt=     1 ISR=     6 T=1 IP=      1 IndIP=     19 IndIPD=      0 C=  0.000000D+00  4.290552D-01                             NZ=T
 IS=     7 IAt=     1 ISR=     7 T=1 IP=      1 IndIP=     20 IndIPD=      0 C=  0.000000D+00  1.016185D-01                             NZ=T
 IS=     8 IAt=     1 ISR=     8 T=2 IP=      1 IndIP=     21 IndIPD=      1 C=  0.000000D+00  0.000000D+00  1.935401D+00  0.000000D+00 NZ=T
 IS=     9 IAt=     1 ISR=     9 T=2 IP=      1 IndIP=     22 IndIPD=      2 C=  0.000000D+00  0.000000D+00  2.216445D-01  0.000000D+00 NZ=T
 IS=    10 IAt=     1 ISR=    10 T=3 IP=      1 IndIP=     23 IndIPD=      3 C=  0.000000D+00  0.000000D+00  0.000000D+00  7.962876D-01 NZ=T
 IS=    11 IAt=     2 ISR=     1 T=0 IP=      1 IndIP=     24 IndIPD=      0 C=  2.551081D-01  0.000000D+00                             NZ=T
 IS=    11 IAt=     2 ISR=     1 T=0 IP=      2 IndIP=     25 IndIPD=      1 C=  4.600979D-01  0.000000D+00                             NZ=T
 IS=    11 IAt=     2 ISR=     1 T=0 IP=      3 IndIP=     26 IndIPD=      2 C=  6.784141D-01  0.000000D+00                             NZ=T
 IS=    12 IAt=     2 ISR=     2 T=0 IP=      1 IndIP=     27 IndIPD=      0 C=  3.073431D-01  0.000000D+00                             NZ=T
 IS=    13 IAt=     2 ISR=     3 T=0 IP=      1 IndIP=     28 IndIPD=      0 C=  1.292968D-01  0.000000D+00                             NZ=T
 IS=    14 IAt=     2 ISR=     4 T=1 IP=      1 IndIP=     29 IndIPD=      0 C=  0.000000D+00  2.184277D+00                             NZ=T
 IS=    15 IAt=     2 ISR=     5 T=1 IP=      1 IndIP=     30 IndIPD=      0 C=  0.000000D+00  4.364955D-01                             NZ=T
 IS=    16 IAt=     2 ISR=     6 T=2 IP=      1 IndIP=     31 IndIPD=      4 C=  0.000000D+00  0.000000D+00  1.813597D+00  0.000000D+00 NZ=T
 IS=    17 IAt=     3 ISR=     1 T=0 IP=      1 IndIP=     32 IndIPD=      0 C=  4.208809D-01  0.000000D+00                             NZ=T
 IS=    17 IAt=     3 ISR=     1 T=0 IP=      2 IndIP=     33 IndIPD=      1 C=  7.842343D-01  0.000000D+00                             NZ=T
 IS=    17 IAt=     3 ISR=     1 T=0 IP=      3 IndIP=     34 IndIPD=      2 C=  1.326312D+00  0.000000D+00                             NZ=T
 IS=    17 IAt=     3 ISR=     1 T=0 IP=      4 IndIP=     35 IndIPD=      3 C=  1.997155D+00  0.000000D+00                             NZ=T
 IS=    17 IAt=     3 ISR=     1 T=0 IP=      5 IndIP=     36 IndIPD=      4 C=  2.472027D+00  0.000000D+00                             NZ=T
 IS=    17 IAt=     3 ISR=     1 T=0 IP=      6 IndIP=     37 IndIPD=      5 C=  2.101828D+00  0.000000D+00                             NZ=T
 IS=    17 IAt=     3 ISR=     1 T=0 IP=      7 IndIP=     38 IndIPD=      6 C=  7.975994D-01  0.000000D+00                             NZ=T
 IS=    18 IAt=     3 ISR=     2 T=0 IP=      1 IndIP=     39 IndIPD=      0 C= -3.059862D-03  0.000000D+00                             NZ=T
 IS=    18 IAt=     3 ISR=     2 T=0 IP=      2 IndIP=     40 IndIPD=      1 C= -2.893489D-02  0.000000D+00                             NZ=T
 IS=    18 IAt=     3 ISR=     2 T=0 IP=      3 IndIP=     41 IndIPD=      2 C= -1.074297D-01  0.000000D+00                             NZ=T
 IS=    18 IAt=     3 ISR=     2 T=0 IP=      4 IndIP=     42 IndIPD=      3 C= -3.080803D-01  0.000000D+00                             NZ=T
 IS=    18 IAt=     3 ISR=     2 T=0 IP=      5 IndIP=     43 IndIPD=      4 C= -3.867909D-01  0.000000D+00                             NZ=T
 IS=    18 IAt=     3 ISR=     2 T=0 IP=      6 IndIP=     44 IndIPD=      5 C=  4.626929D-01  0.000000D+00                             NZ=T
 IS=    19 IAt=     3 ISR=     3 T=0 IP=      1 IndIP=     45 IndIPD=      0 C=  8.641895D-01  0.000000D+00                             NZ=T
 IS=    20 IAt=     3 ISR=     4 T=0 IP=      1 IndIP=     46 IndIPD=      0 C=  1.958860D-01  0.000000D+00                             NZ=T
 IS=    21 IAt=     3 ISR=     5 T=1 IP=      1 IndIP=     47 IndIPD=      0 C=  0.000000D+00  3.432542D+00                             NZ=T
 IS=    21 IAt=     3 ISR=     5 T=1 IP=      2 IndIP=     48 IndIPD=      1 C=  0.000000D+00  3.296915D+00                             NZ=T
 IS=    21 IAt=     3 ISR=     5 T=1 IP=      3 IndIP=     49 IndIPD=      2 C=  0.000000D+00  2.312025D+00                             NZ=T
 IS=    22 IAt=     3 ISR=     6 T=1 IP=      1 IndIP=     50 IndIPD=      0 C=  0.000000D+00  6.828201D-01                             NZ=T
 IS=    23 IAt=     3 ISR=     7 T=1 IP=      1 IndIP=     51 IndIPD=      0 C=  0.000000D+00  1.584625D-01                             NZ=T
 IS=    24 IAt=     3 ISR=     8 T=2 IP=      1 IndIP=     52 IndIPD=      5 C=  0.000000D+00  0.000000D+00  3.970513D+00  0.000000D+00 NZ=T
 IS=    25 IAt=     3 ISR=     9 T=2 IP=      1 IndIP=     53 IndIPD=      6 C=  0.000000D+00  0.000000D+00  4.374838D-01  0.000000D+00 NZ=T
 IS=    26 IAt=     3 ISR=    10 T=3 IP=      1 IndIP=     54 IndIPD=      7 C=  0.000000D+00  0.000000D+00  0.000000D+00  1.798249D+00 NZ=T
 IExCor=         0 DFT=F Ex=HF Corr=None N6=None ScaHFX=  1.000000
 ScaDFX=  1.000000  1.000000  1.000000  1.000000  1.000000  0.000000
 ScaDFX=  0.000000  0.000000  0.000000  0.000000  0.000000  0.000000
 IRadAn=      5 IRanWt=     -1 IRanGd=            0 ICorTp=0 IEmpDi=  4
 NAtoms=    3 NActive=    3 NUniq=    3 SFac= 1.00D+00 NAtFMM=   60 NAOKFM=F Big=F
 Integral buffers will be    131072 words long.
 Raffenetti 1 integral format.
 Two-electron integral symmetry is turned off.
 AtDip 
                 1             2             3 
      1   0.000000D+00  0.000000D+00  0.000000D+00
      2   0.000000D+00  0.000000D+00  0.000000D+00
      3   0.000000D+00  0.000000D+00  0.000000D+00
 AtQua 
                 1             2             3             4             5 
      1   0.000000D+00  0.000000D+00  0.000000D+00  0.000000D+00  0.000000D+00
      2   0.000000D+00  0.000000D+00  0.000000D+00  0.000000D+00  0.000000D+00
      3   0.000000D+00  0.000000D+00  0.000000D+00  0.000000D+00  0.000000D+00
                 6 
      1   0.000000D+00
      2   0.000000D+00
      3   0.000000D+00
 AtPol 
                 1 
      1   0.000000D+00
      2   0.000000D+00
      3   0.000000D+00
 Pair potential:
 Leave Link  301 at Wed Jun 15 18:24:12 2022, MaxMem=  6710886400 cpu:               0.2 elap:               0.1
 (Enter /home/software/gaussian/gdv/j19/gdv/l302.exe)
 GetPMM: IRwPM=    824 LRwPM=      0 LPMAll=      2
 AtDip 
                 1             2             3 
      1   0.000000D+00  0.000000D+00  0.000000D+00
      2   0.000000D+00  0.000000D+00  0.000000D+00
      3   0.000000D+00  0.000000D+00  0.000000D+00
 AtQua 
                 1             2             3             4             5 
      1   0.000000D+00  0.000000D+00  0.000000D+00  0.000000D+00  0.000000D+00
      2   0.000000D+00  0.000000D+00  0.000000D+00  0.000000D+00  0.000000D+00
      3   0.000000D+00  0.000000D+00  0.000000D+00  0.000000D+00  0.000000D+00
                 6 
      1   0.000000D+00
      2   0.000000D+00
      3   0.000000D+00
 AtPol 
                 1 
      1   0.000000D+00
      2   0.000000D+00
      3   0.000000D+00
 NPDir=0 NMtPBC=     1 NCelOv=     1 NCel=       1 NClECP=     1 NCelD=      1
         NCelK=      1 NCelE2=     1 NClLst=     1 CellRange=     0.0.
 One-electron integrals computed using PRISM.
 Entering OneElI...
 OneElI was handed  6710878592 working-precision words.
 Calculate overlap and kinetic energy integrals
    NBasis =  37  MinDer = 0  MaxDer = 0
 Requested accuracy = 0.1000D-12
 ShPair: Thresh= 1.00D-13 NBox=     0 BxSize= 0.00D+00 RnKept= 0.00D+00
         NSMCal=                   66 NSMKep=                  66
 PrSmSu:  IncTry=   512 NBBP=             66 NTPThr=   100 NPartT=    1 Incr=           1 LDynOK=F GPUOK=F.
 PrsmSu:  NPrtUS=   1 ThrOK=F IAlg=2 LenDen=           0 ISkipM=0 DoSpLW=F IThBeg=    0 IThEnd=    0.
 Prism:   IPart=     0 DynPar=F LinDyn=F Incr=           1.
 PRISM was handed  6710872859 working-precision words and    66 shell-pairs
 IPart=  0 NShTot=          66 NBatch=          10 AvBLen=         6.6
 PrsmSu-ThDecC:  IPartSL=    0    0 NPrtUSL=    1    1 IThBeg=    0 IThEnd=    0 CPU=   -1 GPU=   -1 NThAct=    0.
 PrSmSu:  NxtVal=              2.
 *** NEO Overlap *** 
                1             2             3             4             5 
      1  0.100000D+01
      2  0.958386D+00  0.100000D+01
      3  0.834988D+00  0.950714D+00  0.100000D+01
      4  0.653519D+00  0.805523D+00  0.940114D+00  0.100000D+01
      5  0.000000D+00  0.000000D+00  0.000000D+00  0.000000D+00  0.100000D+01
      6  0.000000D+00  0.000000D+00  0.000000D+00  0.000000D+00  0.000000D+00
      7  0.000000D+00  0.000000D+00  0.000000D+00  0.000000D+00  0.000000D+00
      8  0.000000D+00  0.000000D+00  0.000000D+00  0.000000D+00  0.936319D+00
      9  0.000000D+00  0.000000D+00  0.000000D+00  0.000000D+00  0.000000D+00
     10  0.000000D+00  0.000000D+00  0.000000D+00  0.000000D+00  0.000000D+00
     11  0.000000D+00  0.000000D+00  0.000000D+00  0.000000D+00  0.688559D+00
     12  0.000000D+00  0.000000D+00  0.000000D+00  0.000000D+00  0.000000D+00
     13  0.000000D+00  0.000000D+00  0.000000D+00  0.000000D+00  0.000000D+00
     14  0.000000D+00  0.000000D+00  0.000000D+00  0.000000D+00  0.000000D+00
     15  0.000000D+00  0.000000D+00  0.000000D+00  0.000000D+00  0.000000D+00
     16  0.000000D+00  0.000000D+00  0.000000D+00  0.000000D+00  0.000000D+00
     17  0.000000D+00  0.000000D+00  0.000000D+00  0.000000D+00  0.000000D+00
     18  0.000000D+00  0.000000D+00  0.000000D+00  0.000000D+00  0.000000D+00
     19  0.000000D+00  0.000000D+00  0.000000D+00  0.000000D+00  0.000000D+00
     20  0.000000D+00  0.000000D+00  0.000000D+00  0.000000D+00  0.000000D+00
     21  0.000000D+00  0.000000D+00  0.000000D+00  0.000000D+00  0.000000D+00
     22  0.000000D+00  0.000000D+00  0.000000D+00  0.000000D+00  0.000000D+00
     23  0.000000D+00  0.000000D+00  0.000000D+00  0.000000D+00  0.000000D+00
     24  0.000000D+00  0.000000D+00  0.000000D+00  0.000000D+00  0.000000D+00
     25  0.000000D+00  0.000000D+00  0.000000D+00  0.000000D+00  0.000000D+00
     26  0.000000D+00  0.000000D+00  0.000000D+00  0.000000D+00  0.000000D+00
     27  0.000000D+00  0.000000D+00  0.000000D+00  0.000000D+00  0.000000D+00
     28  0.000000D+00  0.000000D+00  0.000000D+00  0.000000D+00  0.000000D+00
     29  0.000000D+00  0.000000D+00  0.000000D+00  0.000000D+00  0.000000D+00
     30  0.000000D+00  0.000000D+00  0.000000D+00  0.000000D+00  0.000000D+00
     31  0.000000D+00  0.000000D+00  0.000000D+00  0.000000D+00  0.000000D+00
     32  0.000000D+00  0.000000D+00  0.000000D+00  0.000000D+00  0.000000D+00
     33  0.000000D+00  0.000000D+00  0.000000D+00  0.000000D+00  0.000000D+00
     34  0.000000D+00  0.000000D+00  0.000000D+00  0.000000D+00  0.000000D+00
     35  0.000000D+00  0.000000D+00  0.000000D+00  0.000000D+00  0.000000D+00
     36  0.000000D+00  0.000000D+00  0.000000D+00  0.000000D+00  0.000000D+00
     37  0.000000D+00  0.000000D+00  0.000000D+00  0.000000D+00  0.000000D+00
                6             7             8             9            10 
      6  0.100000D+01
      7  0.000000D+00  0.100000D+01
      8  0.000000D+00  0.000000D+00  0.100000D+01
      9  0.936319D+00  0.000000D+00  0.000000D+00  0.100000D+01
     10  0.000000D+00  0.936319D+00  0.000000D+00  0.000000D+00  0.100000D+01
     11  0.000000D+00  0.000000D+00  0.875096D+00  0.000000D+00  0.000000D+00
     12  0.688559D+00  0.000000D+00  0.000000D+00  0.875096D+00  0.000000D+00
     13  0.000000D+00  0.688559D+00  0.000000D+00  0.000000D+00  0.875096D+00
     14  0.000000D+00  0.000000D+00  0.000000D+00  0.000000D+00  0.000000D+00
     15  0.000000D+00  0.000000D+00  0.000000D+00  0.000000D+00  0.000000D+00
     16  0.000000D+00  0.000000D+00  0.000000D+00  0.000000D+00  0.000000D+00
     17  0.000000D+00  0.000000D+00  0.000000D+00  0.000000D+00  0.000000D+00
     18  0.000000D+00  0.000000D+00  0.000000D+00  0.000000D+00  0.000000D+00
     19  0.000000D+00  0.000000D+00  0.000000D+00  0.000000D+00  0.000000D+00
     20  0.000000D+00  0.000000D+00  0.000000D+00  0.000000D+00  0.000000D+00
     21  0.000000D+00  0.000000D+00  0.000000D+00  0.000000D+00  0.000000D+00
     22  0.000000D+00  0.000000D+00  0.000000D+00  0.000000D+00  0.000000D+00
     23  0.000000D+00  0.000000D+00  0.000000D+00  0.000000D+00  0.000000D+00
     24  0.000000D+00  0.000000D+00  0.000000D+00  0.000000D+00  0.000000D+00
     25  0.000000D+00  0.000000D+00  0.000000D+00  0.000000D+00  0.000000D+00
     26  0.000000D+00  0.000000D+00  0.000000D+00  0.000000D+00  0.000000D+00
     27  0.000000D+00  0.000000D+00  0.000000D+00  0.000000D+00  0.000000D+00
     28  0.000000D+00  0.000000D+00  0.000000D+00  0.000000D+00  0.000000D+00
     29  0.000000D+00  0.000000D+00  0.000000D+00  0.000000D+00  0.000000D+00
     30  0.000000D+00  0.000000D+00  0.000000D+00  0.000000D+00  0.000000D+00
     31  0.000000D+00  0.000000D+00  0.000000D+00  0.000000D+00  0.000000D+00
     32  0.000000D+00  0.000000D+00  0.000000D+00  0.000000D+00  0.000000D+00
     33  0.000000D+00  0.000000D+00  0.000000D+00  0.000000D+00  0.000000D+00
     34  0.000000D+00  0.000000D+00  0.000000D+00  0.000000D+00  0.000000D+00
     35  0.000000D+00  0.000000D+00  0.000000D+00  0.000000D+00  0.000000D+00
     36  0.000000D+00  0.000000D+00  0.000000D+00  0.000000D+00  0.000000D+00
     37  0.000000D+00  0.000000D+00  0.000000D+00  0.000000D+00  0.000000D+00
               11            12            13            14            15 
     11  0.100000D+01
     12  0.000000D+00  0.100000D+01
     13  0.000000D+00  0.000000D+00  0.100000D+01
     14  0.000000D+00  0.000000D+00  0.000000D+00  0.100000D+01
     15  0.000000D+00  0.000000D+00  0.000000D+00  0.000000D+00  0.100000D+01
     16  0.000000D+00  0.000000D+00  0.000000D+00  0.000000D+00  0.000000D+00
     17  0.000000D+00  0.000000D+00  0.000000D+00  0.000000D+00  0.000000D+00
     18  0.000000D+00  0.000000D+00  0.000000D+00  0.000000D+00  0.000000D+00
     19  0.000000D+00  0.000000D+00  0.000000D+00  0.767988D+00  0.000000D+00
     20  0.000000D+00  0.000000D+00  0.000000D+00  0.000000D+00  0.767988D+00
     21  0.000000D+00  0.000000D+00  0.000000D+00  0.000000D+00  0.000000D+00
     22  0.000000D+00  0.000000D+00  0.000000D+00  0.000000D+00  0.000000D+00
     23  0.000000D+00  0.000000D+00  0.000000D+00  0.000000D+00  0.000000D+00
     24  0.000000D+00  0.000000D+00  0.000000D+00  0.000000D+00  0.000000D+00
     25  0.000000D+00  0.000000D+00  0.000000D+00  0.000000D+00  0.000000D+00
     26  0.000000D+00  0.000000D+00  0.000000D+00  0.000000D+00  0.000000D+00
     27  0.000000D+00  0.000000D+00  0.000000D+00  0.000000D+00  0.000000D+00
     28  0.000000D+00  0.000000D+00  0.000000D+00  0.000000D+00  0.000000D+00
     29  0.000000D+00  0.000000D+00  0.000000D+00  0.000000D+00  0.000000D+00
     30  0.000000D+00  0.000000D+00  0.000000D+00  0.000000D+00  0.000000D+00
     31  0.000000D+00  0.000000D+00  0.000000D+00  0.000000D+00  0.000000D+00
     32  0.000000D+00  0.000000D+00  0.000000D+00  0.000000D+00  0.000000D+00
     33  0.000000D+00  0.000000D+00  0.000000D+00  0.000000D+00  0.000000D+00
     34  0.000000D+00  0.000000D+00  0.000000D+00  0.000000D+00  0.000000D+00
     35  0.000000D+00  0.000000D+00  0.000000D+00  0.000000D+00  0.000000D+00
     36  0.000000D+00  0.000000D+00  0.000000D+00  0.000000D+00  0.000000D+00
     37  0.000000D+00  0.000000D+00  0.000000D+00  0.000000D+00  0.000000D+00
               16            17            18            19            20 
     16  0.100000D+01
     17  0.000000D+00  0.100000D+01
     18  0.000000D+00  0.000000D+00  0.100000D+01
     19  0.000000D+00  0.000000D+00  0.000000D+00  0.100000D+01
     20  0.000000D+00  0.000000D+00  0.000000D+00  0.000000D+00  0.100000D+01
     21  0.767988D+00  0.000000D+00  0.000000D+00  0.000000D+00  0.000000D+00
     22  0.000000D+00  0.767988D+00  0.000000D+00  0.000000D+00  0.000000D+00
     23  0.000000D+00  0.000000D+00  0.767988D+00  0.000000D+00  0.000000D+00
     24  0.000000D+00  0.000000D+00  0.000000D+00  0.000000D+00  0.000000D+00
     25  0.000000D+00  0.000000D+00  0.000000D+00  0.000000D+00  0.000000D+00
     26  0.000000D+00  0.000000D+00  0.000000D+00  0.000000D+00  0.000000D+00
     27  0.000000D+00  0.000000D+00  0.000000D+00  0.000000D+00  0.000000D+00
     28  0.000000D+00  0.000000D+00  0.000000D+00  0.000000D+00  0.000000D+00
     29  0.000000D+00  0.000000D+00  0.000000D+00  0.000000D+00  0.000000D+00
     30  0.000000D+00  0.000000D+00  0.000000D+00  0.000000D+00  0.000000D+00
     31  0.000000D+00  0.000000D+00  0.000000D+00  0.000000D+00  0.000000D+00
     32  0.000000D+00  0.000000D+00  0.000000D+00  0.000000D+00  0.000000D+00
     33  0.000000D+00  0.000000D+00  0.000000D+00  0.000000D+00  0.000000D+00
     34  0.000000D+00  0.000000D+00  0.000000D+00  0.000000D+00  0.000000D+00
     35  0.000000D+00  0.000000D+00  0.000000D+00  0.000000D+00  0.000000D+00
     36  0.000000D+00  0.000000D+00  0.000000D+00  0.000000D+00  0.000000D+00
     37  0.000000D+00  0.000000D+00  0.000000D+00  0.000000D+00  0.000000D+00
               21            22            23            24            25 
     21  0.100000D+01
     22  0.000000D+00  0.100000D+01
     23  0.000000D+00  0.000000D+00  0.100000D+01
     24  0.000000D+00  0.000000D+00  0.000000D+00  0.100000D+01
     25  0.000000D+00  0.000000D+00  0.000000D+00  0.000000D+00  0.100000D+01
     26  0.000000D+00  0.000000D+00  0.000000D+00  0.000000D+00  0.000000D+00
     27  0.000000D+00  0.000000D+00  0.000000D+00  0.000000D+00  0.000000D+00
     28  0.000000D+00  0.000000D+00  0.000000D+00  0.000000D+00  0.000000D+00
     29  0.000000D+00  0.000000D+00  0.000000D+00  0.000000D+00  0.000000D+00
     30  0.000000D+00  0.000000D+00  0.000000D+00  0.000000D+00  0.000000D+00
     31  0.000000D+00  0.000000D+00  0.000000D+00  0.789582D+00  0.000000D+00
     32  0.000000D+00  0.000000D+00  0.000000D+00  0.000000D+00  0.789582D+00
     33  0.000000D+00  0.000000D+00  0.000000D+00  0.000000D+00  0.000000D+00
     34  0.000000D+00  0.000000D+00  0.000000D+00  0.000000D+00  0.000000D+00
     35  0.000000D+00  0.000000D+00  0.000000D+00  0.000000D+00  0.000000D+00
     36  0.000000D+00  0.000000D+00  0.000000D+00  0.000000D+00  0.000000D+00
     37  0.000000D+00  0.000000D+00  0.000000D+00  0.000000D+00  0.000000D+00
               26            27            28            29            30 
     26  0.100000D+01
     27  0.000000D+00  0.100000D+01
     28  0.000000D+00  0.000000D+00  0.100000D+01
     29  0.000000D+00  0.000000D+00  0.000000D+00  0.100000D+01
     30  0.000000D+00  0.000000D+00  0.000000D+00  0.000000D+00  0.100000D+01
     31  0.000000D+00  0.000000D+00  0.000000D+00  0.000000D+00  0.000000D+00
     32  0.000000D+00  0.000000D+00  0.000000D+00  0.000000D+00  0.000000D+00
     33  0.789582D+00  0.000000D+00  0.000000D+00  0.000000D+00  0.000000D+00
     34  0.000000D+00  0.789582D+00  0.000000D+00  0.000000D+00  0.000000D+00
     35  0.000000D+00  0.000000D+00  0.789582D+00  0.000000D+00  0.000000D+00
     36  0.000000D+00  0.000000D+00  0.000000D+00  0.789582D+00  0.000000D+00
     37  0.000000D+00  0.000000D+00  0.000000D+00  0.000000D+00  0.789582D+00
               31            32            33            34            35 
     31  0.100000D+01
     32  0.000000D+00  0.100000D+01
     33  0.000000D+00  0.000000D+00  0.100000D+01
     34  0.000000D+00  0.000000D+00  0.000000D+00  0.100000D+01
     35  0.000000D+00  0.000000D+00  0.000000D+00  0.000000D+00  0.100000D+01
     36  0.000000D+00  0.000000D+00  0.000000D+00  0.000000D+00  0.000000D+00
     37  0.000000D+00  0.000000D+00  0.000000D+00  0.000000D+00  0.000000D+00
               36            37 
     36  0.100000D+01
     37  0.000000D+00  0.100000D+01
 *** NEO Kinetic Energy *** 
                1             2             3             4             5 
      1  0.236500D-01
      2  0.173456D-01  0.146581D-01
      3  0.106181D-01  0.103781D-01  0.869617D-02
      4  0.528689D-02  0.589779D-02  0.587696D-02  0.487950D-02
      5  0.000000D+00  0.000000D+00  0.000000D+00  0.000000D+00  0.317348D-01
      6  0.000000D+00  0.000000D+00  0.000000D+00  0.000000D+00  0.000000D+00
      7  0.000000D+00  0.000000D+00  0.000000D+00  0.000000D+00  0.000000D+00
      8  0.000000D+00  0.000000D+00  0.000000D+00  0.000000D+00  0.229853D-01
      9  0.000000D+00  0.000000D+00  0.000000D+00  0.000000D+00  0.000000D+00
     10  0.000000D+00  0.000000D+00  0.000000D+00  0.000000D+00  0.000000D+00
     11  0.000000D+00  0.000000D+00  0.000000D+00  0.000000D+00  0.107503D-01
     12  0.000000D+00  0.000000D+00  0.000000D+00  0.000000D+00  0.000000D+00
     13  0.000000D+00  0.000000D+00  0.000000D+00  0.000000D+00  0.000000D+00
     14  0.000000D+00  0.000000D+00  0.000000D+00  0.000000D+00  0.000000D+00
     15  0.000000D+00  0.000000D+00  0.000000D+00  0.000000D+00  0.000000D+00
     16  0.000000D+00  0.000000D+00  0.000000D+00  0.000000D+00  0.000000D+00
     17  0.000000D+00  0.000000D+00  0.000000D+00  0.000000D+00  0.000000D+00
     18  0.000000D+00  0.000000D+00  0.000000D+00  0.000000D+00  0.000000D+00
     19  0.000000D+00  0.000000D+00  0.000000D+00  0.000000D+00  0.000000D+00
     20  0.000000D+00  0.000000D+00  0.000000D+00  0.000000D+00  0.000000D+00
     21  0.000000D+00  0.000000D+00  0.000000D+00  0.000000D+00  0.000000D+00
     22  0.000000D+00  0.000000D+00  0.000000D+00  0.000000D+00  0.000000D+00
     23  0.000000D+00  0.000000D+00  0.000000D+00  0.000000D+00  0.000000D+00
     24  0.000000D+00  0.000000D+00  0.000000D+00  0.000000D+00  0.000000D+00
     25  0.000000D+00  0.000000D+00  0.000000D+00  0.000000D+00  0.000000D+00
     26  0.000000D+00  0.000000D+00  0.000000D+00  0.000000D+00  0.000000D+00
     27  0.000000D+00  0.000000D+00  0.000000D+00  0.000000D+00  0.000000D+00
     28  0.000000D+00  0.000000D+00  0.000000D+00  0.000000D+00  0.000000D+00
     29  0.000000D+00  0.000000D+00  0.000000D+00  0.000000D+00  0.000000D+00
     30  0.000000D+00  0.000000D+00  0.000000D+00  0.000000D+00  0.000000D+00
     31  0.000000D+00  0.000000D+00  0.000000D+00  0.000000D+00  0.000000D+00
     32  0.000000D+00  0.000000D+00  0.000000D+00  0.000000D+00  0.000000D+00
     33  0.000000D+00  0.000000D+00  0.000000D+00  0.000000D+00  0.000000D+00
     34  0.000000D+00  0.000000D+00  0.000000D+00  0.000000D+00  0.000000D+00
     35  0.000000D+00  0.000000D+00  0.000000D+00  0.000000D+00  0.000000D+00
     36  0.000000D+00  0.000000D+00  0.000000D+00  0.000000D+00  0.000000D+00
     37  0.000000D+00  0.000000D+00  0.000000D+00  0.000000D+00  0.000000D+00
                6             7             8             9            10 
      6  0.317348D-01
      7  0.000000D+00  0.317348D-01
      8  0.000000D+00  0.000000D+00  0.200160D-01
      9  0.229853D-01  0.000000D+00  0.000000D+00  0.200160D-01
     10  0.000000D+00  0.229853D-01  0.000000D+00  0.000000D+00  0.200160D-01
     11  0.000000D+00  0.000000D+00  0.119427D-01  0.000000D+00  0.000000D+00
     12  0.107503D-01  0.000000D+00  0.000000D+00  0.119427D-01  0.000000D+00
     13  0.000000D+00  0.107503D-01  0.000000D+00  0.000000D+00  0.119427D-01
     14  0.000000D+00  0.000000D+00  0.000000D+00  0.000000D+00  0.000000D+00
     15  0.000000D+00  0.000000D+00  0.000000D+00  0.000000D+00  0.000000D+00
     16  0.000000D+00  0.000000D+00  0.000000D+00  0.000000D+00  0.000000D+00
     17  0.000000D+00  0.000000D+00  0.000000D+00  0.000000D+00  0.000000D+00
     18  0.000000D+00  0.000000D+00  0.000000D+00  0.000000D+00  0.000000D+00
     19  0.000000D+00  0.000000D+00  0.000000D+00  0.000000D+00  0.000000D+00
     20  0.000000D+00  0.000000D+00  0.000000D+00  0.000000D+00  0.000000D+00
     21  0.000000D+00  0.000000D+00  0.000000D+00  0.000000D+00  0.000000D+00
     22  0.000000D+00  0.000000D+00  0.000000D+00  0.000000D+00  0.000000D+00
     23  0.000000D+00  0.000000D+00  0.000000D+00  0.000000D+00  0.000000D+00
     24  0.000000D+00  0.000000D+00  0.000000D+00  0.000000D+00  0.000000D+00
     25  0.000000D+00  0.000000D+00  0.000000D+00  0.000000D+00  0.000000D+00
     26  0.000000D+00  0.000000D+00  0.000000D+00  0.000000D+00  0.000000D+00
     27  0.000000D+00  0.000000D+00  0.000000D+00  0.000000D+00  0.000000D+00
     28  0.000000D+00  0.000000D+00  0.000000D+00  0.000000D+00  0.000000D+00
     29  0.000000D+00  0.000000D+00  0.000000D+00  0.000000D+00  0.000000D+00
     30  0.000000D+00  0.000000D+00  0.000000D+00  0.000000D+00  0.000000D+00
     31  0.000000D+00  0.000000D+00  0.000000D+00  0.000000D+00  0.000000D+00
     32  0.000000D+00  0.000000D+00  0.000000D+00  0.000000D+00  0.000000D+00
     33  0.000000D+00  0.000000D+00  0.000000D+00  0.000000D+00  0.000000D+00
     34  0.000000D+00  0.000000D+00  0.000000D+00  0.000000D+00  0.000000D+00
     35  0.000000D+00  0.000000D+00  0.000000D+00  0.000000D+00  0.000000D+00
     36  0.000000D+00  0.000000D+00  0.000000D+00  0.000000D+00  0.000000D+00
     37  0.000000D+00  0.000000D+00  0.000000D+00  0.000000D+00  0.000000D+00
               11            12            13            14            15 
     11  0.103532D-01
     12  0.000000D+00  0.103532D-01
     13  0.000000D+00  0.000000D+00  0.103532D-01
     14  0.000000D+00  0.000000D+00  0.000000D+00  0.377172D-01
     15  0.000000D+00  0.000000D+00  0.000000D+00  0.000000D+00  0.377172D-01
     16  0.000000D+00  0.000000D+00  0.000000D+00  0.000000D+00  0.000000D+00
     17  0.000000D+00  0.000000D+00  0.000000D+00  0.000000D+00  0.000000D+00
     18  0.000000D+00  0.000000D+00  0.000000D+00  0.000000D+00  0.000000D+00
     19  0.000000D+00  0.000000D+00  0.000000D+00  0.181274D-01  0.000000D+00
     20  0.000000D+00  0.000000D+00  0.000000D+00  0.000000D+00  0.181274D-01
     21  0.000000D+00  0.000000D+00  0.000000D+00  0.000000D+00  0.000000D+00
     22  0.000000D+00  0.000000D+00  0.000000D+00  0.000000D+00  0.000000D+00
     23  0.000000D+00  0.000000D+00  0.000000D+00  0.000000D+00  0.000000D+00
     24  0.000000D+00  0.000000D+00  0.000000D+00  0.000000D+00  0.000000D+00
     25  0.000000D+00  0.000000D+00  0.000000D+00  0.000000D+00  0.000000D+00
     26  0.000000D+00  0.000000D+00  0.000000D+00  0.000000D+00  0.000000D+00
     27  0.000000D+00  0.000000D+00  0.000000D+00  0.000000D+00  0.000000D+00
     28  0.000000D+00  0.000000D+00  0.000000D+00  0.000000D+00  0.000000D+00
     29  0.000000D+00  0.000000D+00  0.000000D+00  0.000000D+00  0.000000D+00
     30  0.000000D+00  0.000000D+00  0.000000D+00  0.000000D+00  0.000000D+00
     31  0.000000D+00  0.000000D+00  0.000000D+00  0.000000D+00  0.000000D+00
     32  0.000000D+00  0.000000D+00  0.000000D+00  0.000000D+00  0.000000D+00
     33  0.000000D+00  0.000000D+00  0.000000D+00  0.000000D+00  0.000000D+00
     34  0.000000D+00  0.000000D+00  0.000000D+00  0.000000D+00  0.000000D+00
     35  0.000000D+00  0.000000D+00  0.000000D+00  0.000000D+00  0.000000D+00
     36  0.000000D+00  0.000000D+00  0.000000D+00  0.000000D+00  0.000000D+00
     37  0.000000D+00  0.000000D+00  0.000000D+00  0.000000D+00  0.000000D+00
               16            17            18            19            20 
     16  0.377172D-01
     17  0.000000D+00  0.377172D-01
     18  0.000000D+00  0.000000D+00  0.377172D-01
     19  0.000000D+00  0.000000D+00  0.000000D+00  0.171764D-01
     20  0.000000D+00  0.000000D+00  0.000000D+00  0.000000D+00  0.171764D-01
     21  0.181274D-01  0.000000D+00  0.000000D+00  0.000000D+00  0.000000D+00
     22  0.000000D+00  0.181274D-01  0.000000D+00  0.000000D+00  0.000000D+00
     23  0.000000D+00  0.000000D+00  0.181274D-01  0.000000D+00  0.000000D+00
     24  0.000000D+00  0.000000D+00  0.000000D+00  0.000000D+00  0.000000D+00
     25  0.000000D+00  0.000000D+00  0.000000D+00  0.000000D+00  0.000000D+00
     26  0.000000D+00  0.000000D+00  0.000000D+00  0.000000D+00  0.000000D+00
     27  0.000000D+00  0.000000D+00  0.000000D+00  0.000000D+00  0.000000D+00
     28  0.000000D+00  0.000000D+00  0.000000D+00  0.000000D+00  0.000000D+00
     29  0.000000D+00  0.000000D+00  0.000000D+00  0.000000D+00  0.000000D+00
     30  0.000000D+00  0.000000D+00  0.000000D+00  0.000000D+00  0.000000D+00
     31  0.000000D+00  0.000000D+00  0.000000D+00  0.000000D+00  0.000000D+00
     32  0.000000D+00  0.000000D+00  0.000000D+00  0.000000D+00  0.000000D+00
     33  0.000000D+00  0.000000D+00  0.000000D+00  0.000000D+00  0.000000D+00
     34  0.000000D+00  0.000000D+00  0.000000D+00  0.000000D+00  0.000000D+00
     35  0.000000D+00  0.000000D+00  0.000000D+00  0.000000D+00  0.000000D+00
     36  0.000000D+00  0.000000D+00  0.000000D+00  0.000000D+00  0.000000D+00
     37  0.000000D+00  0.000000D+00  0.000000D+00  0.000000D+00  0.000000D+00
               21            22            23            24            25 
     21  0.171764D-01
     22  0.000000D+00  0.171764D-01
     23  0.000000D+00  0.000000D+00  0.171764D-01
     24  0.000000D+00  0.000000D+00  0.000000D+00  0.514295D-01
     25  0.000000D+00  0.000000D+00  0.000000D+00  0.000000D+00  0.514295D-01
     26  0.000000D+00  0.000000D+00  0.000000D+00  0.000000D+00  0.000000D+00
     27  0.000000D+00  0.000000D+00  0.000000D+00  0.000000D+00  0.000000D+00
     28  0.000000D+00  0.000000D+00  0.000000D+00  0.000000D+00  0.000000D+00
     29  0.000000D+00  0.000000D+00  0.000000D+00  0.000000D+00  0.000000D+00
     30  0.000000D+00  0.000000D+00  0.000000D+00  0.000000D+00  0.000000D+00
     31  0.000000D+00  0.000000D+00  0.000000D+00  0.277873D-01  0.000000D+00
     32  0.000000D+00  0.000000D+00  0.000000D+00  0.000000D+00  0.277873D-01
     33  0.000000D+00  0.000000D+00  0.000000D+00  0.000000D+00  0.000000D+00
     34  0.000000D+00  0.000000D+00  0.000000D+00  0.000000D+00  0.000000D+00
     35  0.000000D+00  0.000000D+00  0.000000D+00  0.000000D+00  0.000000D+00
     36  0.000000D+00  0.000000D+00  0.000000D+00  0.000000D+00  0.000000D+00
     37  0.000000D+00  0.000000D+00  0.000000D+00  0.000000D+00  0.000000D+00
               26            27            28            29            30 
     26  0.514295D-01
     27  0.000000D+00  0.514295D-01
     28  0.000000D+00  0.000000D+00  0.514295D-01
     29  0.000000D+00  0.000000D+00  0.000000D+00  0.514295D-01
     30  0.000000D+00  0.000000D+00  0.000000D+00  0.000000D+00  0.514295D-01
     31  0.000000D+00  0.000000D+00  0.000000D+00  0.000000D+00  0.000000D+00
     32  0.000000D+00  0.000000D+00  0.000000D+00  0.000000D+00  0.000000D+00
     33  0.277873D-01  0.000000D+00  0.000000D+00  0.000000D+00  0.000000D+00
     34  0.000000D+00  0.277873D-01  0.000000D+00  0.000000D+00  0.000000D+00
     35  0.000000D+00  0.000000D+00  0.277873D-01  0.000000D+00  0.000000D+00
     36  0.000000D+00  0.000000D+00  0.000000D+00  0.277873D-01  0.000000D+00
     37  0.000000D+00  0.000000D+00  0.000000D+00  0.000000D+00  0.277873D-01
               31            32            33            34            35 
     31  0.267478D-01
     32  0.000000D+00  0.267478D-01
     33  0.000000D+00  0.000000D+00  0.267478D-01
     34  0.000000D+00  0.000000D+00  0.000000D+00  0.267478D-01
     35  0.000000D+00  0.000000D+00  0.000000D+00  0.000000D+00  0.267478D-01
     36  0.000000D+00  0.000000D+00  0.000000D+00  0.000000D+00  0.000000D+00
     37  0.000000D+00  0.000000D+00  0.000000D+00  0.000000D+00  0.000000D+00
               36            37 
     36  0.267478D-01
     37  0.000000D+00  0.267478D-01
 Entering OneElI...
 OneElI was handed  6710878592 working-precision words.
 Calculate potential energy integrals
    NBasis =  37  MinDer = 0  MaxDer = 0
 Requested accuracy = 0.1000D-12
 ShPair: Thresh= 1.00D-13 NBox=     0 BxSize= 0.00D+00 RnKept= 0.00D+00
         NSMCal=                   66 NSMKep=                  66
 PrSmSu:  IncTry=   512 NBBP=            198 NTPThr=   100 NPartT=    1 Incr=           1 LDynOK=F GPUOK=F.
 PrsmSu:  NPrtUS=   1 ThrOK=F IAlg=2 LenDen=           0 ISkipM=0 DoSpLW=F IThBeg=    0 IThEnd=    0.
 Prism:   IPart=     0 DynPar=F LinDyn=F Incr=           1.
 PRISM was handed  6710872769 working-precision words and    66 shell-pairs
 IPart=  0 NShTot=         198 NBatch=          66 AvBLen=         3.0
 PrsmSu-ThDecC:  IPartSL=    0    0 NPrtUSL=    1    1 IThBeg=    0 IThEnd=    0 CPU=   -1 GPU=   -1 NThAct=   -1.
 PrSmSu:  NxtVal=              2.
 ***** NEO Potential Energy ***** 
                1             2             3             4             5 
      1  0.463849D+01
      2  0.444546D+01  0.463849D+01
      3  0.387308D+01  0.440987D+01  0.463849D+01
      4  0.303134D+01  0.373641D+01  0.436070D+01  0.463849D+01
      5  0.000000D+00  0.000000D+00  0.000000D+00  0.000000D+00  0.462968D+01
      6  0.000000D+00  0.000000D+00  0.000000D+00  0.000000D+00  0.000000D+00
      7  0.170925D+00  0.215668D+00  0.237200D+00  0.222654D+00  0.000000D+00
      8  0.000000D+00  0.000000D+00  0.000000D+00  0.000000D+00  0.433299D+01
      9  0.000000D+00  0.000000D+00  0.000000D+00  0.000000D+00  0.000000D+00
     10  0.150662D+00  0.217603D+00  0.276910D+00  0.298769D+00  0.000000D+00
     11  0.000000D+00  0.000000D+00  0.000000D+00  0.000000D+00  0.318473D+01
     12  0.000000D+00  0.000000D+00  0.000000D+00  0.000000D+00  0.000000D+00
     13  0.102984D+00  0.176175D+00  0.276143D+00  0.374979D+00  0.000000D+00
     14  0.115307D-01  0.197307D-01  0.283027D-01  0.328821D-01  0.000000D+00
     15  0.000000D+00  0.000000D+00  0.000000D+00  0.000000D+00  0.189692D+00
     16  0.000000D+00  0.000000D+00  0.000000D+00  0.000000D+00  0.000000D+00
     17  0.000000D+00  0.000000D+00  0.000000D+00  0.000000D+00  0.000000D+00
     18  0.000000D+00  0.000000D+00  0.000000D+00  0.000000D+00  0.000000D+00
     19  0.698020D-02  0.161642D-01  0.329943D-01  0.553045D-01  0.000000D+00
     20  0.000000D+00  0.000000D+00  0.000000D+00  0.000000D+00  0.130794D+00
     21  0.000000D+00  0.000000D+00  0.000000D+00  0.000000D+00  0.000000D+00
     22  0.000000D+00  0.000000D+00  0.000000D+00  0.000000D+00  0.000000D+00
     23  0.000000D+00  0.000000D+00  0.000000D+00  0.000000D+00  0.000000D+00
     24  0.111943D-02  0.239786D-02  0.412567D-02  0.549075D-02  0.000000D+00
     25  0.000000D+00  0.000000D+00  0.000000D+00  0.000000D+00  0.163966D-01
     26  0.000000D+00  0.000000D+00  0.000000D+00  0.000000D+00  0.000000D+00
     27  0.000000D+00  0.000000D+00  0.000000D+00  0.000000D+00  0.000000D+00
     28  0.000000D+00  0.000000D+00  0.000000D+00  0.000000D+00  0.000000D+00
     29  0.000000D+00  0.000000D+00  0.000000D+00  0.000000D+00  0.000000D+00
     30  0.000000D+00  0.000000D+00  0.000000D+00  0.000000D+00  0.000000D+00
     31  0.708554D-03  0.211856D-02  0.531840D-02  0.103492D-01  0.000000D+00
     32  0.000000D+00  0.000000D+00  0.000000D+00  0.000000D+00  0.119791D-01
     33  0.000000D+00  0.000000D+00  0.000000D+00  0.000000D+00  0.000000D+00
     34  0.000000D+00  0.000000D+00  0.000000D+00  0.000000D+00  0.000000D+00
     35  0.000000D+00  0.000000D+00  0.000000D+00  0.000000D+00  0.000000D+00
     36  0.000000D+00  0.000000D+00  0.000000D+00  0.000000D+00  0.000000D+00
     37  0.000000D+00  0.000000D+00  0.000000D+00  0.000000D+00  0.000000D+00
                6             7             8             9            10 
      6  0.462968D+01
      7  0.000000D+00  0.465610D+01
      8  0.000000D+00  0.000000D+00  0.462452D+01
      9  0.433299D+01  0.000000D+00  0.000000D+00  0.462452D+01
     10  0.000000D+00  0.436333D+01  0.000000D+00  0.000000D+00  0.466641D+01
     11  0.000000D+00  0.000000D+00  0.404301D+01  0.000000D+00  0.000000D+00
     12  0.318473D+01  0.000000D+00  0.000000D+00  0.404301D+01  0.000000D+00
     13  0.000000D+00  0.321216D+01  0.000000D+00  0.000000D+00  0.409133D+01
     14  0.000000D+00  0.222963D+00  0.000000D+00  0.000000D+00  0.274053D+00
     15  0.000000D+00  0.000000D+00  0.232129D+00  0.000000D+00  0.000000D+00
     16  0.189692D+00  0.000000D+00  0.000000D+00  0.232129D+00  0.000000D+00
     17  0.000000D+00  0.000000D+00  0.000000D+00  0.000000D+00  0.000000D+00
     18  0.000000D+00  0.000000D+00  0.000000D+00  0.000000D+00  0.000000D+00
     19  0.000000D+00  0.154646D+00  0.000000D+00  0.000000D+00  0.258263D+00
     20  0.000000D+00  0.000000D+00  0.216567D+00  0.000000D+00  0.000000D+00
     21  0.130794D+00  0.000000D+00  0.000000D+00  0.216567D+00  0.000000D+00
     22  0.000000D+00  0.000000D+00  0.000000D+00  0.000000D+00  0.000000D+00
     23  0.000000D+00  0.000000D+00  0.000000D+00  0.000000D+00  0.000000D+00
     24  0.000000D+00  0.206784D-01  0.000000D+00  0.000000D+00  0.308540D-01
     25  0.000000D+00  0.000000D+00  0.242933D-01  0.000000D+00  0.000000D+00
     26  0.163966D-01  0.000000D+00  0.000000D+00  0.242933D-01  0.000000D+00
     27  0.000000D+00  0.000000D+00  0.000000D+00  0.000000D+00  0.000000D+00
     28  0.000000D+00  0.000000D+00  0.000000D+00  0.000000D+00  0.000000D+00
     29  0.000000D+00  0.000000D+00  0.000000D+00  0.000000D+00  0.000000D+00
     30  0.000000D+00  0.000000D+00  0.000000D+00  0.000000D+00  0.000000D+00
     31  0.000000D+00  0.152378D-01  0.000000D+00  0.000000D+00  0.317661D-01
     32  0.000000D+00  0.000000D+00  0.246578D-01  0.000000D+00  0.000000D+00
     33  0.119791D-01  0.000000D+00  0.000000D+00  0.246578D-01  0.000000D+00
     34  0.000000D+00  0.000000D+00  0.000000D+00  0.000000D+00  0.000000D+00
     35  0.000000D+00  0.000000D+00  0.000000D+00  0.000000D+00  0.000000D+00
     36  0.000000D+00  0.000000D+00  0.000000D+00  0.000000D+00  0.000000D+00
     37  0.000000D+00  0.000000D+00  0.000000D+00  0.000000D+00  0.000000D+00
               11            12            13            14            15 
     11  0.461149D+01
     12  0.000000D+00  0.461149D+01
     13  0.000000D+00  0.000000D+00  0.469247D+01
     14  0.000000D+00  0.000000D+00  0.270174D+00  0.465976D+01
     15  0.227535D+00  0.000000D+00  0.000000D+00  0.000000D+00  0.464851D+01
     16  0.000000D+00  0.227535D+00  0.000000D+00  0.000000D+00  0.000000D+00
     17  0.000000D+00  0.000000D+00  0.000000D+00  0.000000D+00  0.000000D+00
     18  0.000000D+00  0.000000D+00  0.000000D+00  0.000000D+00  0.000000D+00
     19  0.000000D+00  0.000000D+00  0.396584D+00  0.358496D+01  0.000000D+00
     20  0.328028D+00  0.000000D+00  0.000000D+00  0.000000D+00  0.357274D+01
     21  0.000000D+00  0.328028D+00  0.000000D+00  0.000000D+00  0.000000D+00
     22  0.000000D+00  0.000000D+00  0.000000D+00  0.000000D+00  0.000000D+00
     23  0.000000D+00  0.000000D+00  0.000000D+00  0.000000D+00  0.000000D+00
     24  0.000000D+00  0.000000D+00  0.368950D-01  0.283848D+00  0.000000D+00
     25  0.287897D-01  0.000000D+00  0.000000D+00  0.000000D+00  0.265787D+00
     26  0.000000D+00  0.287897D-01  0.000000D+00  0.000000D+00  0.000000D+00
     27  0.000000D+00  0.000000D+00  0.000000D+00  0.000000D+00  0.000000D+00
     28  0.000000D+00  0.000000D+00  0.000000D+00  0.000000D+00  0.000000D+00
     29  0.000000D+00  0.000000D+00  0.000000D+00  0.000000D+00  0.000000D+00
     30  0.000000D+00  0.000000D+00  0.000000D+00  0.000000D+00  0.000000D+00
     31  0.000000D+00  0.000000D+00  0.606455D-01  0.234545D+00  0.000000D+00
     32  0.461752D-01  0.000000D+00  0.000000D+00  0.000000D+00  0.219074D+00
     33  0.000000D+00  0.461752D-01  0.000000D+00  0.000000D+00  0.000000D+00
     34  0.000000D+00  0.000000D+00  0.000000D+00  0.000000D+00  0.000000D+00
     35  0.000000D+00  0.000000D+00  0.000000D+00  0.000000D+00  0.000000D+00
     36  0.000000D+00  0.000000D+00  0.000000D+00  0.000000D+00  0.000000D+00
     37  0.000000D+00  0.000000D+00  0.000000D+00  0.000000D+00  0.000000D+00
               16            17            18            19            20 
     16  0.464851D+01
     17  0.000000D+00  0.461783D+01
     18  0.000000D+00  0.000000D+00  0.461783D+01
     19  0.000000D+00  0.000000D+00  0.000000D+00  0.468658D+01
     20  0.000000D+00  0.000000D+00  0.000000D+00  0.000000D+00  0.465957D+01
     21  0.357274D+01  0.000000D+00  0.000000D+00  0.000000D+00  0.000000D+00
     22  0.000000D+00  0.354053D+01  0.000000D+00  0.000000D+00  0.000000D+00
     23  0.000000D+00  0.000000D+00  0.354053D+01  0.000000D+00  0.000000D+00
     24  0.000000D+00  0.000000D+00  0.000000D+00  0.286282D+00  0.000000D+00
     25  0.000000D+00  0.000000D+00  0.000000D+00  0.000000D+00  0.267333D+00
     26  0.265787D+00  0.000000D+00  0.000000D+00  0.000000D+00  0.000000D+00
     27  0.000000D+00  0.206264D+00  0.000000D+00  0.000000D+00  0.000000D+00
     28  0.000000D+00  0.000000D+00  0.206264D+00  0.000000D+00  0.000000D+00
     29  0.000000D+00  0.000000D+00  0.000000D+00  0.000000D+00  0.000000D+00
     30  0.000000D+00  0.000000D+00  0.000000D+00  0.000000D+00  0.000000D+00
     31  0.000000D+00  0.000000D+00  0.000000D+00  0.417592D+00  0.000000D+00
     32  0.000000D+00  0.000000D+00  0.000000D+00  0.000000D+00  0.387755D+00
     33  0.219074D+00  0.000000D+00  0.000000D+00  0.000000D+00  0.000000D+00
     34  0.000000D+00  0.169001D+00  0.000000D+00  0.000000D+00  0.000000D+00
     35  0.000000D+00  0.000000D+00  0.169001D+00  0.000000D+00  0.000000D+00
     36  0.000000D+00  0.000000D+00  0.000000D+00  0.000000D+00  0.000000D+00
     37  0.000000D+00  0.000000D+00  0.000000D+00  0.000000D+00  0.000000D+00
               21            22            23            24            25 
     21  0.465957D+01
     22  0.000000D+00  0.459335D+01
     23  0.000000D+00  0.000000D+00  0.459335D+01
     24  0.000000D+00  0.000000D+00  0.000000D+00  0.466245D+01
     25  0.000000D+00  0.000000D+00  0.000000D+00  0.000000D+00  0.465615D+01
     26  0.267333D+00  0.000000D+00  0.000000D+00  0.000000D+00  0.000000D+00
     27  0.000000D+00  0.206113D+00  0.000000D+00  0.000000D+00  0.000000D+00
     28  0.000000D+00  0.000000D+00  0.206113D+00  0.000000D+00  0.000000D+00
     29  0.000000D+00  0.000000D+00  0.000000D+00  0.000000D+00  0.000000D+00
     30  0.000000D+00  0.000000D+00  0.000000D+00  0.000000D+00  0.000000D+00
     31  0.000000D+00  0.000000D+00  0.000000D+00  0.368753D+01  0.000000D+00
     32  0.000000D+00  0.000000D+00  0.000000D+00  0.000000D+00  0.368083D+01
     33  0.387755D+00  0.000000D+00  0.000000D+00  0.000000D+00  0.000000D+00
     34  0.000000D+00  0.295307D+00  0.000000D+00  0.000000D+00  0.000000D+00
     35  0.000000D+00  0.000000D+00  0.295307D+00  0.000000D+00  0.000000D+00
     36  0.000000D+00  0.000000D+00  0.000000D+00  0.000000D+00  0.000000D+00
     37  0.000000D+00  0.000000D+00  0.000000D+00  0.000000D+00  0.000000D+00
               26            27            28            29            30 
     26  0.465615D+01
     27  0.000000D+00  0.463795D+01
     28  0.000000D+00  0.000000D+00  0.463795D+01
     29  0.000000D+00  0.000000D+00  0.000000D+00  0.460937D+01
     30  0.000000D+00  0.000000D+00  0.000000D+00  0.000000D+00  0.460937D+01
     31  0.000000D+00  0.000000D+00  0.000000D+00  0.000000D+00  0.000000D+00
     32  0.000000D+00  0.000000D+00  0.000000D+00  0.000000D+00  0.000000D+00
     33  0.368083D+01  0.000000D+00  0.000000D+00  0.000000D+00  0.000000D+00
     34  0.000000D+00  0.366173D+01  0.000000D+00  0.000000D+00  0.000000D+00
     35  0.000000D+00  0.000000D+00  0.366173D+01  0.000000D+00  0.000000D+00
     36  0.000000D+00  0.000000D+00  0.000000D+00  0.363230D+01  0.000000D+00
     37  0.000000D+00  0.000000D+00  0.000000D+00  0.000000D+00  0.363230D+01
               31            32            33            34            35 
     31  0.468551D+01
     32  0.000000D+00  0.467251D+01
     33  0.000000D+00  0.000000D+00  0.467251D+01
     34  0.000000D+00  0.000000D+00  0.000000D+00  0.463652D+01
     35  0.000000D+00  0.000000D+00  0.000000D+00  0.000000D+00  0.463652D+01
     36  0.000000D+00  0.000000D+00  0.000000D+00  0.000000D+00  0.000000D+00
     37  0.000000D+00  0.000000D+00  0.000000D+00  0.000000D+00  0.000000D+00
               36            37 
     36  0.458292D+01
     37  0.000000D+00  0.458292D+01
 Entering OneElI...
 OneElI was handed  6710878592 working-precision words.
 Calculate overlap and kinetic energy integrals
    NBasis =  74  MinDer = 0  MaxDer = 0
 Requested accuracy = 0.1000D-12
 ShPair: Thresh= 1.00D-13 NBox=     0 BxSize= 0.00D+00 RnKept= 4.19D+00
         NSMCal=                  351 NSMKep=                 351
 PrmmSu-InSpLW:  IPartL=    0 NPrtUS=   15 NPrtUL=    1 DoSpLW=F IThBeg=    0 IThEnd=   14 NThAct=   15.
 PrSmSu:  IncTry=   512 NBBP=            351 NTPThr=   100 NPartT=   15 Incr=           1 LDynOK=F GPUOK=F.
 PrsmSu:  NPrtUS=  15 ThrOK=T IAlg=1 LenDen=           0 ISkipM=0 DoSpLW=F IThBeg=    0 IThEnd=   14.
 Prism:   IPart=     0 DynPar=F LinDyn=F Incr=           1.
 PRISM was handed   447371141 working-precision words and   351 shell-pairs
 PRISM was handed   447371141 working-precision words and   351 shell-pairs
 PRISM was handed   447371141 working-precision words and   351 shell-pairs
 PRISM was handed   447371141 working-precision words and   351 shell-pairs
 PRISM was handed   447371141 working-precision words and   351 shell-pairs
 PRISM was handed   447371141 working-precision words and   351 shell-pairs
 PRISM was handed   447371141 working-precision words and   351 shell-pairs
 PRISM was handed   447371141 working-precision words and   351 shell-pairs
 PRISM was handed   447371141 working-precision words and   351 shell-pairs
 PRISM was handed   447371141 working-precision words and   351 shell-pairs
 PRISM was handed   447371141 working-precision words and   351 shell-pairs
 PRISM was handed   447371141 working-precision words and   351 shell-pairs
 PRISM was handed   447371141 working-precision words and   351 shell-pairs
 PRISM was handed   447371141 working-precision words and   351 shell-pairs
 IPart=  0 NShTot=          48 NBatch=          41 AvBLen=         1.2
 PrsmSu-ThDecC:  IPartSL=    0    0 NPrtUSL=   15    1 IThBeg=    0 IThEnd=   14 CPU=   -1 GPU=   -1 NThAct=   15.
 IPart= 13 NShTot=          10 NBatch=           7 AvBLen=         1.4
 PrsmSu-ThDecC:  IPartSL=   13    0 NPrtUSL=   15    1 IThBeg=    0 IThEnd=   14 CPU=   -1 GPU=   -1 NThAct=   14.
 IPart= 12 NShTot=          11 NBatch=           8 AvBLen=         1.4
 PrsmSu-ThDecC:  IPartSL=   12    0 NPrtUSL=   15    1 IThBeg=    0 IThEnd=   14 CPU=   -1 GPU=   -1 NThAct=   13.
 IPart=  5 NShTot=          25 NBatch=          19 AvBLen=         1.3
 PRISM was handed   447371141 working-precision words and   351 shell-pairs
 PrsmSu-ThDecC:  IPartSL=    5    0 NPrtUSL=   15    1 IThBeg=    0 IThEnd=   14 CPU=   -1 GPU=   -1 NThAct=   12.
 IPart= 11 NShTot=          17 NBatch=          14 AvBLen=         1.2
 PrsmSu-ThDecC:  IPartSL=   11    0 NPrtUSL=   15    1 IThBeg=    0 IThEnd=   14 CPU=   -1 GPU=   -1 NThAct=   11.
 IPart= 14 NShTot=          10 NBatch=           7 AvBLen=         1.4
 PrsmSu-ThDecC:  IPartSL=   14    0 NPrtUSL=   15    1 IThBeg=    0 IThEnd=   14 CPU=   -1 GPU=   -1 NThAct=   10.
 IPart=  6 NShTot=          21 NBatch=          18 AvBLen=         1.2
 PrsmSu-ThDecC:  IPartSL=    6    0 NPrtUSL=   15    1 IThBeg=    0 IThEnd=   14 CPU=   -1 GPU=   -1 NThAct=    9.
 IPart=  3 NShTot=          29 NBatch=          23 AvBLen=         1.3
 PrsmSu-ThDecC:  IPartSL=    3    0 NPrtUSL=   15    1 IThBeg=    0 IThEnd=   14 CPU=   -1 GPU=   -1 NThAct=    8.
 IPart=  4 NShTot=          26 NBatch=          20 AvBLen=         1.3
 PrsmSu-ThDecC:  IPartSL=    4    0 NPrtUSL=   15    1 IThBeg=    0 IThEnd=   14 CPU=   -1 GPU=   -1 NThAct=    7.
 IPart=  8 NShTot=          21 NBatch=          18 AvBLen=         1.2
 IPart=  2 NShTot=          32 NBatch=          25 AvBLen=         1.3
 IPart=  9 NShTot=          21 NBatch=          18 AvBLen=         1.2
 PrsmSu-ThDecC:  IPartSL=    8    0 NPrtUSL=   15    1 IThBeg=    0 IThEnd=   14 CPU=   -1 GPU=   -1 NThAct=    6.
 IPart= 10 NShTot=          17 NBatch=          14 AvBLen=         1.2
 PrsmSu-ThDecC:  IPartSL=    9    0 NPrtUSL=   15    1 IThBeg=    0 IThEnd=   14 CPU=   -1 GPU=   -1 NThAct=    5.
 IPart=  1 NShTot=          42 NBatch=          35 AvBLen=         1.2
 PrsmSu-ThDecC:  IPartSL=   10    0 NPrtUSL=   15    1 IThBeg=    0 IThEnd=   14 CPU=   -1 GPU=   -1 NThAct=    4.
 PrsmSu-ThDecC:  IPartSL=    1    0 NPrtUSL=   15    1 IThBeg=    0 IThEnd=   14 CPU=   -1 GPU=   -1 NThAct=    3.
 PrsmSu-ThDecC:  IPartSL=    2    0 NPrtUSL=   15    1 IThBeg=    0 IThEnd=   14 CPU=   -1 GPU=   -1 NThAct=    2.
 IPart=  7 NShTot=          21 NBatch=          18 AvBLen=         1.2
 PrsmSu-ThDecC:  IPartSL=    7    0 NPrtUSL=   15    1 IThBeg=    0 IThEnd=   14 CPU=   -1 GPU=   -1 NThAct=    1.
 PrSmSu:  NxtVal=             16.
 *** Overlap *** 
                1             2             3             4             5 
      1  0.100000D+01
      2  0.103339D+00  0.100000D+01
      3  0.516997D+00  0.765042D+00  0.100000D+01
      4  0.147493D+00  0.834862D+00  0.535796D+00  0.100000D+01
      5  0.000000D+00  0.000000D+00  0.000000D+00  0.000000D+00  0.100000D+01
      6  0.000000D+00  0.000000D+00  0.000000D+00  0.000000D+00  0.000000D+00
      7  0.000000D+00  0.000000D+00  0.000000D+00  0.000000D+00  0.000000D+00
      8  0.000000D+00  0.000000D+00  0.000000D+00  0.000000D+00  0.611573D+00
      9  0.000000D+00  0.000000D+00  0.000000D+00  0.000000D+00  0.000000D+00
     10  0.000000D+00  0.000000D+00  0.000000D+00  0.000000D+00  0.000000D+00
     11  0.000000D+00  0.000000D+00  0.000000D+00  0.000000D+00  0.221927D+00
     12  0.000000D+00  0.000000D+00  0.000000D+00  0.000000D+00  0.000000D+00
     13  0.000000D+00  0.000000D+00  0.000000D+00  0.000000D+00  0.000000D+00
     14  0.000000D+00  0.000000D+00  0.000000D+00  0.000000D+00  0.000000D+00
     15  0.000000D+00  0.000000D+00  0.000000D+00  0.000000D+00  0.000000D+00
     16  0.000000D+00  0.000000D+00  0.000000D+00  0.000000D+00  0.000000D+00
     17  0.000000D+00  0.000000D+00  0.000000D+00  0.000000D+00  0.000000D+00
     18  0.000000D+00  0.000000D+00  0.000000D+00  0.000000D+00  0.000000D+00
     19  0.000000D+00  0.000000D+00  0.000000D+00  0.000000D+00  0.000000D+00
     20  0.000000D+00  0.000000D+00  0.000000D+00  0.000000D+00  0.000000D+00
     21  0.000000D+00  0.000000D+00  0.000000D+00  0.000000D+00  0.000000D+00
     22  0.000000D+00  0.000000D+00  0.000000D+00  0.000000D+00  0.000000D+00
     23  0.000000D+00  0.000000D+00  0.000000D+00  0.000000D+00  0.000000D+00
     24  0.000000D+00  0.000000D+00  0.000000D+00  0.000000D+00  0.000000D+00
     25  0.000000D+00  0.000000D+00  0.000000D+00  0.000000D+00  0.000000D+00
     26  0.000000D+00  0.000000D+00  0.000000D+00  0.000000D+00  0.000000D+00
     27  0.000000D+00  0.000000D+00  0.000000D+00  0.000000D+00  0.000000D+00
     28  0.000000D+00  0.000000D+00  0.000000D+00  0.000000D+00  0.000000D+00
     29  0.000000D+00  0.000000D+00  0.000000D+00  0.000000D+00  0.000000D+00
     30  0.000000D+00  0.000000D+00  0.000000D+00  0.000000D+00  0.000000D+00
     31  0.108817D-01  0.246457D+00  0.110470D+00  0.266799D+00  0.000000D+00
     32  0.802239D-01  0.503595D+00  0.311053D+00  0.586533D+00  0.000000D+00
     33  0.833033D-01  0.555759D+00  0.322602D+00  0.784451D+00  0.000000D+00
     34  0.000000D+00  0.000000D+00  0.000000D+00  0.000000D+00  0.596793D-01
     35  0.000000D+00  0.000000D+00  0.000000D+00  0.000000D+00  0.000000D+00
     36  0.270093D-01  0.225627D+00  0.190419D+00  0.102237D+00  0.000000D+00
     37  0.000000D+00  0.000000D+00  0.000000D+00  0.000000D+00  0.182173D+00
     38  0.000000D+00  0.000000D+00  0.000000D+00  0.000000D+00  0.000000D+00
     39  0.167938D+00  0.552617D+00  0.509551D+00  0.339548D+00  0.000000D+00
     40  0.105750D+00  0.154606D+00  0.287999D+00  0.359860D-01  0.000000D+00
     41  0.000000D+00  0.000000D+00  0.000000D+00  0.000000D+00  0.195664D+00
     42  0.000000D+00  0.000000D+00  0.000000D+00  0.000000D+00  0.000000D+00
     43  0.000000D+00  0.000000D+00  0.000000D+00  0.000000D+00  0.000000D+00
     44  0.000000D+00  0.000000D+00  0.000000D+00  0.000000D+00  0.000000D+00
     45  0.143947D-04  0.511708D-01  0.101318D-01  0.643809D-01  0.000000D+00
     46  0.453854D-01  0.382762D+00  0.213976D+00  0.453886D+00  0.000000D+00
     47  0.521611D-02  0.210914D+00  0.800981D-01  0.250889D+00  0.000000D+00
     48  0.828474D-01  0.529678D+00  0.317115D+00  0.689881D+00  0.000000D+00
     49  0.000000D+00  0.000000D+00  0.000000D+00  0.000000D+00  0.239490D-01
     50  0.000000D+00  0.000000D+00  0.000000D+00  0.000000D+00  0.000000D+00
     51 -0.599620D-02 -0.145706D+00 -0.942533D-01 -0.702107D-01  0.000000D+00
     52  0.000000D+00  0.000000D+00  0.000000D+00  0.000000D+00  0.122961D+00
     53  0.000000D+00  0.000000D+00  0.000000D+00  0.000000D+00  0.000000D+00
     54 -0.108912D+00 -0.437249D+00 -0.380522D+00 -0.256885D+00  0.000000D+00
     55  0.000000D+00  0.000000D+00  0.000000D+00  0.000000D+00  0.154856D+00
     56  0.000000D+00  0.000000D+00  0.000000D+00  0.000000D+00  0.000000D+00
     57 -0.144301D+00 -0.636111D+00 -0.480679D+00 -0.535037D+00  0.000000D+00
     58  0.203472D-01  0.962875D-01  0.134542D+00  0.198092D-01  0.000000D+00
     59  0.000000D+00  0.000000D+00  0.000000D+00  0.000000D+00 -0.736704D-01
     60  0.000000D+00  0.000000D+00  0.000000D+00  0.000000D+00  0.000000D+00
     61  0.000000D+00  0.000000D+00  0.000000D+00  0.000000D+00  0.000000D+00
     62  0.000000D+00  0.000000D+00  0.000000D+00  0.000000D+00  0.000000D+00
     63  0.200045D+00  0.330228D+00  0.477718D+00  0.109109D+00  0.000000D+00
     64  0.000000D+00  0.000000D+00  0.000000D+00  0.000000D+00 -0.300129D+00
     65  0.000000D+00  0.000000D+00  0.000000D+00  0.000000D+00  0.000000D+00
     66  0.000000D+00  0.000000D+00  0.000000D+00  0.000000D+00  0.000000D+00
     67  0.000000D+00  0.000000D+00  0.000000D+00  0.000000D+00  0.000000D+00
     68 -0.109552D+00 -0.543314D-01 -0.216981D+00 -0.783143D-02  0.000000D+00
     69  0.000000D+00  0.000000D+00  0.000000D+00  0.000000D+00  0.218110D+00
     70  0.000000D+00  0.000000D+00  0.000000D+00  0.000000D+00  0.000000D+00
     71  0.000000D+00  0.000000D+00  0.000000D+00  0.000000D+00  0.000000D+00
     72  0.000000D+00  0.000000D+00  0.000000D+00  0.000000D+00  0.000000D+00
     73  0.000000D+00  0.000000D+00  0.000000D+00  0.000000D+00  0.000000D+00
     74  0.000000D+00  0.000000D+00  0.000000D+00  0.000000D+00  0.000000D+00
                6             7             8             9            10 
      6  0.100000D+01
      7  0.000000D+00  0.100000D+01
      8  0.000000D+00  0.000000D+00  0.100000D+01
      9  0.611573D+00  0.000000D+00  0.000000D+00  0.100000D+01
     10  0.000000D+00  0.611573D+00  0.000000D+00  0.000000D+00  0.100000D+01
     11  0.000000D+00  0.000000D+00  0.674476D+00  0.000000D+00  0.000000D+00
     12  0.221927D+00  0.000000D+00  0.000000D+00  0.674476D+00  0.000000D+00
     13  0.000000D+00  0.221927D+00  0.000000D+00  0.000000D+00  0.674476D+00
     14  0.000000D+00  0.000000D+00  0.000000D+00  0.000000D+00  0.000000D+00
     15  0.000000D+00  0.000000D+00  0.000000D+00  0.000000D+00  0.000000D+00
     16  0.000000D+00  0.000000D+00  0.000000D+00  0.000000D+00  0.000000D+00
     17  0.000000D+00  0.000000D+00  0.000000D+00  0.000000D+00  0.000000D+00
     18  0.000000D+00  0.000000D+00  0.000000D+00  0.000000D+00  0.000000D+00
     19  0.000000D+00  0.000000D+00  0.000000D+00  0.000000D+00  0.000000D+00
     20  0.000000D+00  0.000000D+00  0.000000D+00  0.000000D+00  0.000000D+00
     21  0.000000D+00  0.000000D+00  0.000000D+00  0.000000D+00  0.000000D+00
     22  0.000000D+00  0.000000D+00  0.000000D+00  0.000000D+00  0.000000D+00
     23  0.000000D+00  0.000000D+00  0.000000D+00  0.000000D+00  0.000000D+00
     24  0.000000D+00  0.000000D+00  0.000000D+00  0.000000D+00  0.000000D+00
     25  0.000000D+00  0.000000D+00  0.000000D+00  0.000000D+00  0.000000D+00
     26  0.000000D+00  0.000000D+00  0.000000D+00  0.000000D+00  0.000000D+00
     27  0.000000D+00  0.000000D+00  0.000000D+00  0.000000D+00  0.000000D+00
     28  0.000000D+00  0.000000D+00  0.000000D+00  0.000000D+00  0.000000D+00
     29  0.000000D+00  0.000000D+00  0.000000D+00  0.000000D+00  0.000000D+00
     30  0.000000D+00  0.000000D+00  0.000000D+00  0.000000D+00  0.000000D+00
     31  0.000000D+00 -0.150337D+00  0.000000D+00  0.000000D+00 -0.435882D+00
     32  0.000000D+00 -0.217212D+00  0.000000D+00  0.000000D+00 -0.557529D+00
     33  0.000000D+00 -0.821954D-01  0.000000D+00  0.000000D+00 -0.280644D+00
     34  0.000000D+00  0.000000D+00  0.177968D+00  0.000000D+00  0.000000D+00
     35  0.596793D-01  0.000000D+00  0.000000D+00  0.177968D+00  0.000000D+00
     36  0.000000D+00 -0.264321D+00  0.000000D+00  0.000000D+00 -0.259867D+00
     37  0.000000D+00  0.000000D+00  0.454855D+00  0.000000D+00  0.000000D+00
     38  0.182173D+00  0.000000D+00  0.000000D+00  0.454855D+00  0.000000D+00
     39  0.000000D+00 -0.261598D+00  0.000000D+00  0.000000D+00 -0.261739D+00
     40  0.000000D+00 -0.313816D+00  0.000000D+00  0.000000D+00 -0.441608D-01
     41  0.000000D+00  0.000000D+00  0.257099D+00  0.000000D+00  0.000000D+00
     42  0.195664D+00  0.000000D+00  0.000000D+00  0.257099D+00  0.000000D+00
     43  0.000000D+00  0.000000D+00  0.000000D+00  0.000000D+00  0.000000D+00
     44  0.000000D+00  0.000000D+00  0.000000D+00  0.000000D+00  0.000000D+00
     45  0.000000D+00  0.138132D-01  0.000000D+00  0.000000D+00  0.115681D+00
     46  0.000000D+00  0.212138D+00  0.000000D+00  0.000000D+00  0.541976D+00
     47  0.000000D+00  0.111974D+00  0.000000D+00  0.000000D+00  0.397803D+00
     48  0.000000D+00  0.143401D+00  0.000000D+00  0.000000D+00  0.433128D+00
     49  0.000000D+00  0.000000D+00  0.103610D+00  0.000000D+00  0.000000D+00
     50  0.239490D-01  0.000000D+00  0.000000D+00  0.103610D+00  0.000000D+00
     51  0.000000D+00 -0.140803D+00  0.000000D+00  0.000000D+00 -0.204858D+00
     52  0.000000D+00  0.000000D+00  0.330760D+00  0.000000D+00  0.000000D+00
     53  0.122961D+00  0.000000D+00  0.000000D+00  0.330760D+00  0.000000D+00
     54  0.000000D+00 -0.323979D+00  0.000000D+00  0.000000D+00 -0.372720D+00
     55  0.000000D+00  0.000000D+00  0.471597D+00  0.000000D+00  0.000000D+00
     56  0.154856D+00  0.000000D+00  0.000000D+00  0.471597D+00  0.000000D+00
[...]
 PrismC:  IPart=    14 DynPar=T LinDyn=F Incr=         159 UseFst=F UseS4=T ISplat=2.
 CoulSu:  IPart=    5 IPartR=    5 CPU=   -1 GPU=   -1.
 PrismC was handed   446820206 working-precision words and   692 shell-pairs
 Enter PrismC:  IPart= 12 JobTyp=20 DoJE=F Cont=F.
 Enter PrismC:  IPart= 11 JobTyp=20 DoJE=F Cont=F.
 PrismC:  IPart=    12 DynPar=T LinDyn=F Incr=         159 UseFst=F UseS4=T ISplat=2.
 PrismC was handed   446820206 working-precision words and   692 shell-pairs
 Enter PrismC:  IPart=  1 JobTyp=20 DoJE=F Cont=F.
 PrismC:  IPart=    11 DynPar=T LinDyn=F Incr=         159 UseFst=F UseS4=T ISplat=2.
 Enter PrismC:  IPart=  5 JobTyp=20 DoJE=F Cont=F.
 PrismC was handed   446820206 working-precision words and   692 shell-pairs
 Enter PrismC:  IPart=  6 JobTyp=20 DoJE=F Cont=F.
 Enter PrismC:  IPart=  8 JobTyp=20 DoJE=F Cont=F.
 PrismC:  IPart=     1 DynPar=T LinDyn=F Incr=         159 UseFst=F UseS4=T ISplat=2.
 Enter PrismC:  IPart= 10 JobTyp=20 DoJE=F Cont=F.
 PrismC was handed   446820206 working-precision words and   692 shell-pairs
 PrismC:  IPart=     8 DynPar=T LinDyn=F Incr=         159 UseFst=F UseS4=T ISplat=2.
 Enter PrismC:  IPart=  9 JobTyp=20 DoJE=F Cont=F.
 PrismC:  IPart=     5 DynPar=T LinDyn=F Incr=         159 UseFst=F UseS4=T ISplat=2.
 Enter PrismC:  IPart=  4 JobTyp=20 DoJE=F Cont=F.
 PrismC:  IPart=     9 DynPar=T LinDyn=F Incr=         159 UseFst=F UseS4=T ISplat=2.
 PrismC:  IPart=     4 DynPar=T LinDyn=F Incr=         159 UseFst=F UseS4=T ISplat=2.
 PrismC was handed   446820206 working-precision words and   692 shell-pairs
 PrismC:  IPart=    10 DynPar=T LinDyn=F Incr=         159 UseFst=F UseS4=T ISplat=2.
 PrismC was handed   446820206 working-precision words and   692 shell-pairs
 PrismC was handed   446820206 working-precision words and   692 shell-pairs
 PrismC:  IPart=     6 DynPar=T LinDyn=F Incr=         159 UseFst=F UseS4=T ISplat=2.
 Enter PrismC:  IPart=  3 JobTyp=20 DoJE=F Cont=F.
 PrismC was handed   446820206 working-precision words and   692 shell-pairs
 PrismC:  IPart=     3 DynPar=T LinDyn=F Incr=         159 UseFst=F UseS4=T ISplat=2.
 PrismC was handed   446820206 working-precision words and   692 shell-pairs
 PrismC was handed   446820206 working-precision words and   692 shell-pairs
 Enter PrismC:  IPart= 13 JobTyp=20 DoJE=F Cont=F.
 PrismC was handed   446820206 working-precision words and   692 shell-pairs
 PrismC:  IPart=    13 DynPar=T LinDyn=F Incr=         159 UseFst=F UseS4=T ISplat=2.
 PrismC was handed   446820206 working-precision words and   692 shell-pairs
 Enter PrismC:  IPart=  7 JobTyp=20 DoJE=F Cont=F.
 PrismC:  IPart=     7 DynPar=T LinDyn=F Incr=         159 UseFst=F UseS4=T ISplat=2.
 PrismC was handed   446820206 working-precision words and   692 shell-pairs
 IPart= 12 NShTot=        6043 NShNF=        6043 NShFF=           0 MinMC=       7
           NShCPU=        6043 NBCPU=         176 AvBCPU=        34.3
           NShGPU=           0 NBGPU=           0 AvBGPU=         0.0
 IPart=  1 NShTot=       17339 NShNF=       17339 NShFF=           0 MinMC=       7
           NShCPU=       17339 NBCPU=         261 AvBCPU=        66.4
           NShGPU=           0 NBGPU=           0 AvBGPU=         0.0
 CoulSu-ThDecC:  IPartSL=   12    0 NPrtUSL=   15    1 IThBeg=    0 IThEnd=   14 CPU=   -1 GPU=   -1 NThAct=   15.
 IPart=  5 NShTot=       14187 NShNF=       14187 NShFF=           0 MinMC=       7
           NShCPU=       14187 NBCPU=         283 AvBCPU=        50.1
           NShGPU=           0 NBGPU=           0 AvBGPU=         0.0
 IPart=  7 NShTot=       15164 NShNF=       15164 NShFF=           0 MinMC=       7
           NShCPU=       15164 NBCPU=         291 AvBCPU=        52.1
           NShGPU=           0 NBGPU=           0 AvBGPU=         0.0
 CoulSu-ThDecC:  IPartSL=    1    0 NPrtUSL=   15    1 IThBeg=    0 IThEnd=   14 CPU=   -1 GPU=   -1 NThAct=   14.
 IPart=  6 NShTot=       12204 NShNF=       12204 NShFF=           0 MinMC=       7
           NShCPU=       12204 NBCPU=         229 AvBCPU=        53.3
           NShGPU=           0 NBGPU=           0 AvBGPU=         0.0
 IPart= 11 NShTot=       17180 NShNF=       17180 NShFF=           0 MinMC=       7
           NShCPU=       17180 NBCPU=         302 AvBCPU=        56.9
           NShGPU=           0 NBGPU=           0 AvBGPU=         0.0
 CoulSu-ThDecC:  IPartSL=    7    0 NPrtUSL=   15    1 IThBeg=    0 IThEnd=   14 CPU=   -1 GPU=   -1 NThAct=   13.
 IPart= 10 NShTot=       13288 NShNF=       13288 NShFF=           0 MinMC=       7
           NShCPU=       13288 NBCPU=         226 AvBCPU=        58.8
           NShGPU=           0 NBGPU=           0 AvBGPU=         0.0
 CoulSu-ThDecC:  IPartSL=    6    0 NPrtUSL=   15    1 IThBeg=    0 IThEnd=   14 CPU=   -1 GPU=   -1 NThAct=   12.
 IPart=  9 NShTot=       17741 NShNF=       17741 NShFF=           0 MinMC=       7
           NShCPU=       17741 NBCPU=         313 AvBCPU=        56.7
           NShGPU=           0 NBGPU=           0 AvBGPU=         0.0
 IPart=  3 NShTot=       14363 NShNF=       14363 NShFF=           0 MinMC=       7
           NShCPU=       14363 NBCPU=         277 AvBCPU=        51.9
           NShGPU=           0 NBGPU=           0 AvBGPU=         0.0
 CoulSu-ThDecC:  IPartSL=   10    0 NPrtUSL=   15    1 IThBeg=    0 IThEnd=   14 CPU=   -1 GPU=   -1 NThAct=   11.
 IPart=  4 NShTot=        7352 NShNF=        7352 NShFF=           0 MinMC=       7
           NShCPU=        7352 NBCPU=         174 AvBCPU=        42.3
           NShGPU=           0 NBGPU=           0 AvBGPU=         0.0
 CoulSu-ThDecC:  IPartSL=    9    0 NPrtUSL=   15    1 IThBeg=    0 IThEnd=   14 CPU=   -1 GPU=   -1 NThAct=   10.
 IPart=  8 NShTot=       15783 NShNF=       15783 NShFF=           0 MinMC=       7
           NShCPU=       15783 NBCPU=         292 AvBCPU=        54.1
           NShGPU=           0 NBGPU=           0 AvBGPU=         0.0
 CoulSu-ThDecC:  IPartSL=    4    0 NPrtUSL=   15    1 IThBeg=    0 IThEnd=   14 CPU=   -1 GPU=   -1 NThAct=    9.
 IPart=  2 NShTot=        6787 NShNF=        6787 NShFF=           0 MinMC=       7
           NShCPU=        6787 NBCPU=         131 AvBCPU=        51.8
           NShGPU=           0 NBGPU=           0 AvBGPU=         0.0
 IPart=  0 NShTot=       16328 NShNF=       16328 NShFF=           0 MinMC=       7
           NShCPU=       16328 NBCPU=         257 AvBCPU=        63.5
           NShGPU=           0 NBGPU=           0 AvBGPU=         0.0
 CoulSu-ThDecC:  IPartSL=    8    0 NPrtUSL=   15    1 IThBeg=    0 IThEnd=   14 CPU=   -1 GPU=   -1 NThAct=    8.
 IPart= 13 NShTot=        6811 NShNF=        6811 NShFF=           0 MinMC=       7
           NShCPU=        6811 NBCPU=         146 AvBCPU=        46.7
           NShGPU=           0 NBGPU=           0 AvBGPU=         0.0
 CoulSu-ThDecC:  IPartSL=    0    0 NPrtUSL=   15    1 IThBeg=    0 IThEnd=   14 CPU=   -1 GPU=   -1 NThAct=    7.
 IPart= 14 NShTot=       15801 NShNF=       15801 NShFF=           0 MinMC=       7
           NShCPU=       15801 NBCPU=         299 AvBCPU=        52.8
           NShGPU=           0 NBGPU=           0 AvBGPU=         0.0
 CoulSu-ThDecC:  IPartSL=    2    0 NPrtUSL=   15    1 IThBeg=    0 IThEnd=   14 CPU=   -1 GPU=   -1 NThAct=    6.
 CoulSu-ThDecC:  IPartSL=    5    0 NPrtUSL=   15    1 IThBeg=    0 IThEnd=   14 CPU=   -1 GPU=   -1 NThAct=    5.
 CoulSu-ThDecC:  IPartSL=   11    0 NPrtUSL=   15    1 IThBeg=    0 IThEnd=   14 CPU=   -1 GPU=   -1 NThAct=    4.
 CoulSu-ThDecC:  IPartSL=   14    0 NPrtUSL=   15    1 IThBeg=    0 IThEnd=   14 CPU=   -1 GPU=   -1 NThAct=    3.
 CoulSu-ThDecC:  IPartSL=    3    0 NPrtUSL=   15    1 IThBeg=    0 IThEnd=   14 CPU=   -1 GPU=   -1 NThAct=    2.
 CoulSu-ThDecC:  IPartSL=   13    0 NPrtUSL=   15    1 IThBeg=    0 IThEnd=   14 CPU=   -1 GPU=   -1 NThAct=    1.
 CoulSu:  NxtVal=         257581 LenVP=      446820207 MinMC=       7.
 FoFCou EC=  33.9749258371     ENF=  33.9749258371    
 Enegy Component Breakdown at Iteration                       82
 Classical nuclear potential =     19.38378061978021     
 Quantum-classical nuclear potential =     4.617549230781858     
 Quantum nuclear potential =   -1.8041124150158794E-016
 Pure electronic energy =   -111.3762402087454     
 Electron-quantum-nuclear potential =    -5.492993766293225     
 Quantum-nuclear-electron potential =    -5.492993766290223     
 DIIS: error= 1.66D-09 at cycle  82 NSaved=  10.
 B matrix at iteration         82
                 1             2             3             4             5 
      1   0.000000D+00 -0.100000D+01 -0.100000D+01 -0.100000D+01 -0.100000D+01
      2  -0.100000D+01  0.176046D-11  0.214165D-12  0.120388D-12  0.405806D-13
      3  -0.100000D+01  0.214165D-12  0.186342D-12  0.145120D-12  0.366944D-13
      4  -0.100000D+01  0.120388D-12  0.145120D-12  0.126260D-12  0.354208D-13
      5  -0.100000D+01  0.405806D-13  0.366944D-13  0.354208D-13  0.337724D-13
      6  -0.100000D+01  0.295416D-13  0.299321D-13  0.294056D-13  0.287760D-13
      7  -0.100000D+01  0.291311D-13  0.246934D-13  0.239469D-13  0.237931D-13
      8  -0.100000D+01  0.110069D-13  0.140438D-13  0.130134D-13  0.125239D-13
      9  -0.100000D+01 -0.464949D-14  0.164860D-14  0.196008D-14  0.139293D-14
     10  -0.100000D+01  0.207962D-14 -0.419393D-15  0.408684D-16  0.394232D-15
     11  -0.100000D+01 -0.366531D-14  0.991868D-15  0.869859D-15  0.406751D-15
                 6             7             8             9            10 
      1  -0.100000D+01 -0.100000D+01 -0.100000D+01 -0.100000D+01 -0.100000D+01
      2   0.295416D-13  0.291311D-13  0.110069D-13 -0.464949D-14  0.207962D-14
      3   0.299321D-13  0.246934D-13  0.140438D-13  0.164860D-14 -0.419393D-15
      4   0.294056D-13  0.239469D-13  0.130134D-13  0.196008D-14  0.408684D-16
      5   0.287760D-13  0.237931D-13  0.125239D-13  0.139293D-14  0.394232D-15
      6   0.274172D-13  0.239324D-13  0.123260D-13  0.160041D-14  0.505829D-15
      7   0.239324D-13  0.231081D-13  0.125019D-13  0.135330D-14  0.494799D-15
      8   0.123260D-13  0.125019D-13  0.106445D-13  0.155705D-14  0.607002D-15
      9   0.160041D-14  0.135330D-14  0.155705D-14  0.891350D-15  0.447346D-15
     10   0.505829D-15  0.494799D-15  0.607002D-15  0.447346D-15  0.346582D-15
     11   0.503668D-15  0.331683D-15  0.398128D-15  0.349617D-15  0.146736D-15
                11 
      1  -0.100000D+01
      2  -0.366531D-14
      3   0.991868D-15
      4   0.869859D-15
      5   0.406751D-15
      6   0.503668D-15
      7   0.331683D-15
      8   0.398128D-15
      9   0.349617D-15
     10   0.146736D-15
     11   0.194402D-15
 B matrix at iteration         82
                 1             2             3             4             5 
      1   0.000000D+00 -0.100000D+01 -0.100000D+01 -0.100000D+01 -0.100000D+01
      2  -0.100000D+01  0.176046D-11  0.214165D-12  0.120388D-12  0.405806D-13
      3  -0.100000D+01  0.214165D-12  0.186342D-12  0.145120D-12  0.366944D-13
      4  -0.100000D+01  0.120388D-12  0.145120D-12  0.126260D-12  0.354208D-13
      5  -0.100000D+01  0.405806D-13  0.366944D-13  0.354208D-13  0.337724D-13
      6  -0.100000D+01  0.295416D-13  0.299321D-13  0.294056D-13  0.287760D-13
      7  -0.100000D+01  0.291311D-13  0.246934D-13  0.239469D-13  0.237931D-13
      8  -0.100000D+01  0.110069D-13  0.140438D-13  0.130134D-13  0.125239D-13
      9  -0.100000D+01 -0.464949D-14  0.164860D-14  0.196008D-14  0.139293D-14
     10  -0.100000D+01  0.207962D-14 -0.419393D-15  0.408684D-16  0.394232D-15
     11  -0.100000D+01 -0.366531D-14  0.991868D-15  0.869859D-15  0.406751D-15
                 6             7             8             9            10 
      1  -0.100000D+01 -0.100000D+01 -0.100000D+01 -0.100000D+01 -0.100000D+01
      2   0.295416D-13  0.291311D-13  0.110069D-13 -0.464949D-14  0.207962D-14
      3   0.299321D-13  0.246934D-13  0.140438D-13  0.164860D-14 -0.419393D-15
      4   0.294056D-13  0.239469D-13  0.130134D-13  0.196008D-14  0.408684D-16
      5   0.287760D-13  0.237931D-13  0.125239D-13  0.139293D-14  0.394232D-15
      6   0.274172D-13  0.239324D-13  0.123260D-13  0.160041D-14  0.505829D-15
      7   0.239324D-13  0.231081D-13  0.125019D-13  0.135330D-14  0.494799D-15
      8   0.123260D-13  0.125019D-13  0.106445D-13  0.155705D-14  0.607002D-15
      9   0.160041D-14  0.135330D-14  0.155705D-14  0.891350D-15  0.447346D-15
     10   0.505829D-15  0.494799D-15  0.607002D-15  0.447346D-15  0.346582D-15
     11   0.503668D-15  0.331683D-15  0.398128D-15  0.349617D-15  0.146736D-15
                11 
      1  -0.100000D+01
      2  -0.366531D-14
      3   0.991868D-15
      4   0.869859D-15
      5   0.406751D-15
      6   0.503668D-15
      7   0.331683D-15
      8   0.398128D-15
      9   0.349617D-15
     10   0.146736D-15
     11   0.194402D-15
 NSaved=10 IEnMin= 1 EnMin=  0.00000000000000     IErMin= 9 ErrMin= 1.33D-09
 ErrMax= 1.66D-09  0.00D+00 EMaxC= 1.00D+00 BMatC= 1.94D-16 BMatP= 3.47D-16
 IDIUse=1 WtCom= 1.00D+00 WtEn= 0.00D+00
 Inv2:  IOpt= 1 Iter= 1 AM= 3.44D+01 Conv= 1.00D-12.
 Inv2:  IOpt= 1 Iter= 2 AM= 2.71D-13 Conv= 1.00D-12.
 Coeff-Com: -0.630D-04-0.864D-02 0.111D-01 0.405D-02-0.128D-01-0.258D-02
 Coeff-Com:  0.491D-01-0.729D+00 0.563D+00 0.113D+01
 Coeff-En:   0.000D+00 0.000D+00 0.000D+00 0.000D+00 0.000D+00 0.000D+00
 Coeff-En:   0.000D+00 0.000D+00 0.000D+00 0.000D+00
 Coeff:     -0.630D-04-0.864D-02 0.111D-01 0.405D-02-0.128D-01-0.258D-02
 Coeff:      0.491D-01-0.729D+00 0.563D+00 0.113D+01
 DSYEVD-2 returned Info=         149 IAlg= 4 N=    74 NDim=    74 NE2=  6703107652 trying  DSYEV.
 Has Electronic Subsystem Converged:   T
 Has Protonic Subsystem Converged:   T
 Simultaneous Optimization Iteration #                       82
 The Energy for This Iteration is:    -92.86790412447655     
 TOTAL ENERGY HAS CONVERGED!!!
 NEO-SCF Converged After Iteration #                       82
 E= -92.8679041244766    
 Elec Eigen 
                 1             2 
      1  -0.155938D+02  0.000000D+00
      2  -0.112849D+02  0.000000D+00
      3  -0.123647D+01  0.000000D+00
      4  -0.797474D+00  0.000000D+00
      5  -0.578321D+00  0.000000D+00
      6  -0.495754D+00  0.000000D+00
      7  -0.495754D+00  0.000000D+00
      8   0.138632D+00  0.000000D+00
      9   0.169188D+00  0.000000D+00
     10   0.169188D+00  0.000000D+00
     11   0.243081D+00  0.000000D+00
     12   0.447816D+00  0.000000D+00
     13   0.447816D+00  0.000000D+00
     14   0.478145D+00  0.000000D+00
     15   0.564179D+00  0.000000D+00
     16   0.623362D+00  0.000000D+00
     17   0.715749D+00  0.000000D+00
     18   0.715749D+00  0.000000D+00
     19   0.811832D+00  0.000000D+00
     20   0.811832D+00  0.000000D+00
     21   0.860882D+00  0.000000D+00
     22   0.860882D+00  0.000000D+00
     23   0.982246D+00  0.000000D+00
     24   0.119967D+01  0.000000D+00
     25   0.138708D+01  0.000000D+00
     26   0.138708D+01  0.000000D+00
     27   0.142320D+01  0.000000D+00
     28   0.142320D+01  0.000000D+00
     29   0.160195D+01  0.000000D+00
     30   0.178422D+01  0.000000D+00
     31   0.192437D+01  0.000000D+00
     32   0.192437D+01  0.000000D+00
     33   0.208547D+01  0.000000D+00
     34   0.233546D+01  0.000000D+00
     35   0.233546D+01  0.000000D+00
     36   0.254292D+01  0.000000D+00
     37   0.288422D+01  0.000000D+00
     38   0.293062D+01  0.000000D+00
     39   0.293062D+01  0.000000D+00
     40   0.293127D+01  0.000000D+00
     41   0.293127D+01  0.000000D+00
     42   0.303944D+01  0.000000D+00
     43   0.303944D+01  0.000000D+00
     44   0.323240D+01  0.000000D+00
     45   0.323240D+01  0.000000D+00
     46   0.345648D+01  0.000000D+00
     47   0.345648D+01  0.000000D+00
     48   0.346927D+01  0.000000D+00
     49   0.357498D+01  0.000000D+00
     50   0.357498D+01  0.000000D+00
     51   0.382614D+01  0.000000D+00
     52   0.382614D+01  0.000000D+00
     53   0.404016D+01  0.000000D+00
     54   0.430049D+01  0.000000D+00
     55   0.430049D+01  0.000000D+00
     56   0.432865D+01  0.000000D+00
     57   0.432865D+01  0.000000D+00
     58   0.437057D+01  0.000000D+00
     59   0.492910D+01  0.000000D+00
     60   0.492910D+01  0.000000D+00
     61   0.495726D+01  0.000000D+00
     62   0.495726D+01  0.000000D+00
     63   0.505463D+01  0.000000D+00
     64   0.505463D+01  0.000000D+00
     65   0.509206D+01  0.000000D+00
     66   0.549561D+01  0.000000D+00
     67   0.567597D+01  0.000000D+00
     68   0.567597D+01  0.000000D+00
     69   0.615210D+01  0.000000D+00
     70   0.663860D+01  0.000000D+00
     71   0.663860D+01  0.000000D+00
     72   0.696607D+01  0.000000D+00
     73   0.870051D+01  0.000000D+00
     74   0.153699D+02  0.000000D+00
 Prot Eigen 
                 1             2 
      1  -0.875445D+00  0.000000D+00
      2   0.935053D+00  0.000000D+00
      3   0.110598D+01  0.000000D+00
      4   0.110598D+01  0.000000D+00
      5   0.113685D+01  0.000000D+00
      6   0.127639D+01  0.000000D+00
      7   0.127639D+01  0.000000D+00
      8   0.127676D+01  0.000000D+00
      9   0.127676D+01  0.000000D+00
     10   0.128870D+01  0.000000D+00
     11   0.128870D+01  0.000000D+00
     12   0.129761D+01  0.000000D+00
     13   0.133465D+01  0.000000D+00
     14   0.133465D+01  0.000000D+00
     15   0.134696D+01  0.000000D+00
     16   0.134696D+01  0.000000D+00
     17   0.135255D+01  0.000000D+00
     18   0.173633D+01  0.000000D+00
     19   0.207794D+01  0.000000D+00
     20   0.207794D+01  0.000000D+00
     21   0.210802D+01  0.000000D+00
     22   0.255192D+01  0.000000D+00
     23   0.255493D+01  0.000000D+00
     24   0.255493D+01  0.000000D+00
     25   0.256592D+01  0.000000D+00
     26   0.256592D+01  0.000000D+00
     27   0.258622D+01  0.000000D+00
     28   0.258622D+01  0.000000D+00
     29   0.277325D+01  0.000000D+00
     30   0.277325D+01  0.000000D+00
     31   0.278831D+01  0.000000D+00
     32   0.278831D+01  0.000000D+00
     33   0.279375D+01  0.000000D+00
     34   0.319656D+01  0.000000D+00
     35   0.319656D+01  0.000000D+00
     36   0.321697D+01  0.000000D+00
     37   0.332730D+01  0.000000D+00
 Leave Link  502 at Wed Jun 15 18:25:00 2022, MaxMem=  6710886400 cpu:             516.2 elap:              47.2
 (Enter /home/software/gaussian/gdv/j19/gdv/l601.exe)
 Copying SCF densities to generalized density rwf, IOpCl=** IROHF=0.
 Alpha  occ. eigenvalues --  -15.59379 -11.28489  -1.23647  -0.79747  -0.57832
 Alpha  occ. eigenvalues --   -0.49575  -0.49575
 Alpha virt. eigenvalues --    0.13863   0.16919   0.16919   0.24308   0.44782
 Alpha virt. eigenvalues --    0.44782   0.47815   0.56418   0.62336   0.71575
 Alpha virt. eigenvalues --    0.71575   0.81183   0.81183   0.86088   0.86088
 Alpha virt. eigenvalues --    0.98225   1.19967   1.38708   1.38708   1.42320
 Alpha virt. eigenvalues --    1.42320   1.60195   1.78422   1.92437   1.92437
 Alpha virt. eigenvalues --    2.08547   2.33546   2.33546   2.54292   2.88422
 Alpha virt. eigenvalues --    2.93062   2.93062   2.93127   2.93127   3.03944
 Alpha virt. eigenvalues --    3.03944   3.23240   3.23240   3.45648   3.45648
 Alpha virt. eigenvalues --    3.46927   3.57498   3.57498   3.82614   3.82614
 Alpha virt. eigenvalues --    4.04016   4.30049   4.30049   4.32865   4.32865
 Alpha virt. eigenvalues --    4.37057   4.92910   4.92910   4.95726   4.95726
 Alpha virt. eigenvalues --    5.05463   5.05463   5.09206   5.49561   5.67597
 Alpha virt. eigenvalues --    5.67597   6.15210   6.63860   6.63860   6.96607
 Alpha virt. eigenvalues --    8.70051  15.36995
 Nuclear orbitals not supported in not supported in RdDen.
 Error termination via Lnk1e in /home/software/gaussian/gdv/j19/gdv/l601.exe at Wed Jun 15 18:25:01 2022.
 Job cpu time:       0 days  0 hours  8 minutes 47.3 seconds.
 Elapsed time:       0 days  0 hours  0 minutes 49.0 seconds.
 File lengths (MBytes):  RWF=      6 Int=      0 D2E=      0 Chk=      1 Scr=      1
