 Entering Gaussian System, Link 0=gdv
 Input=hcn_ccpvdz_pb4d.gjf
 Output=hcn_ccpvdz_pb4d.log
 Initial command:
 /home/software/gaussian/gdv/j19/gdv/l1.exe "/home/aodongliu/GauScr/Gau-420589.inp" -scrdir="/home/aodongliu/GauScr/" -exedir="/home/aodongliu/neo_scf/exe-dir:/home/software/gaussian/gdv/j19/gdv/bsd:/home/software/gaussian/gdv/j19/gdv/local:/home/software/gaussian/gdv/j19/gdv/extras:/home/software/gaussian/gdv/j19/gdv"
 Entering Link 1 = /home/software/gaussian/gdv/j19/gdv/l1.exe PID=    420590.
  
 Copyright (c) 1988-2021, Gaussian, Inc.  All Rights Reserved.
  
 This is the private, development version of
 the Gaussian(R) DV system of programs. It is based on
 the Gaussian(R) 16 system (copyright 2016, Gaussian, Inc.),
 the Gaussian(R) 09 system (copyright 2009, Gaussian, Inc.),
 the Gaussian(R) 03 system (copyright 2003, Gaussian, Inc.),
 the Gaussian(R) 98 system (copyright 1998, Gaussian, Inc.),
 the Gaussian(R) 94 system (copyright 1995, Gaussian, Inc.),
 the Gaussian 92(TM) system (copyright 1992, Gaussian, Inc.),
 the Gaussian 90(TM) system (copyright 1990, Gaussian, Inc.),
 the Gaussian 88(TM) system (copyright 1988, Gaussian, Inc.),
 the Gaussian 86(TM) system (copyright 1986, Carnegie Mellon
 University), and the Gaussian 82(TM) system (copyright 1983,
 Carnegie Mellon University). Gaussian is a federally registered
 trademark of Gaussian, Inc.
  
 This software contains proprietary and confidential information,
 including trade secrets, belonging to Gaussian, Inc.
  
 This software is provided under written license and may be
 used, copied, transmitted, or stored only in accord with that
 written license.
  
 The following legend is applicable only to US Government
 contracts under FAR:
  
                    RESTRICTED RIGHTS LEGEND
  
 Use, reproduction and disclosure by the US Government is
 subject to restrictions as set forth in subparagraphs (a)
 and (c) of the Commercial Computer Software - Restricted
 Rights clause in FAR 52.227-19.
  
 Gaussian, Inc.
 340 Quinnipiac St., Bldg. 40, Wallingford CT 06492
  
  
 ---------------------------------------------------------------
 Warning -- This program may not be used in any manner that
 competes with the business of Gaussian, Inc. or will provide
 assistance to any competitor of Gaussian, Inc.  The licensee
 of this program is prohibited from giving any competitor of
 Gaussian, Inc. access to this program.  By using this program,
 the user acknowledges that Gaussian, Inc. is engaged in the
 business of creating and licensing software in the field of
 computational chemistry and represents and warrants to the
 licensee that it is not a competitor of Gaussian, Inc. and that
 it will not use this program in any manner prohibited above.
 ---------------------------------------------------------------
  

 Cite this work as:
 Gaussian Development Version, Revision J.19,
 M. J. Frisch, G. W. Trucks, H. B. Schlegel, G. E. Scuseria, 
 M. A. Robb, J. R. Cheeseman, G. Scalmani, V. Barone, 
 G. A. Petersson, H. Nakatsuji, X. Li, A. V. Marenich, M. Caricato, 
 J. Bloino, B. G. Janesko, J. Zheng, R. Gomperts, B. Mennucci, 
 H. P. Hratchian, J. V. Ortiz, A. F. Izmaylov, J. L. Sonnenberg, 
 D. Williams-Young, F. Ding, F. Lipparini, F. Egidi, J. Goings, 
 B. Peng, A. Petrone, T. Henderson, D. Ranasinghe, V. G. Zakrzewski, 
 J. Gao, N. Rega, G. Zheng, W. Liang, M. Hada, M. Ehara, K. Toyota, 
 R. Fukuda, J. Hasegawa, M. Ishida, T. Nakajima, Y. Honda, O. Kitao, 
 H. Nakai, T. Vreven, K. Throssell, J. A. Montgomery, Jr., 
 J. E. Peralta, F. Ogliaro, M. J. Bearpark, J. J. Heyd, 
 E. N. Brothers, K. N. Kudin, V. N. Staroverov, T. A. Keith, 
 R. Kobayashi, J. Normand, K. Raghavachari, A. P. Rendell, 
 J. C. Burant, S. S. Iyengar, J. Tomasi, M. Cossi, J. M. Millam, 
 M. Klene, C. Adamo, R. Cammi, J. W. Ochterski, R. L. Martin, 
 K. Morokuma, O. Farkas, J. B. Foresman, and D. J. Fox, 
 Gaussian, Inc., Wallingford CT, 2020.
 
 ******************************************
 Gaussian DV:  ES64L-GDVRevJ.19 27-Nov-2021
                15-Jun-2022 
 ******************************************
 %mem=50gb
 %nproc=5
 Will use up to    5 processors via shared memory.
 ----------------------------------------------------------------------
 #p rhf/cc-pvdz test neo=gen gfinput guess=print # iop33(3=2,4=2,5=2) i
 op(5/73=0,5/81=0) nosymm
 ----------------------------------------------------------------------
 1/37=210000000,38=1,172=1/1;
 2/12=2,15=1/2;
 3/5=16,11=1,24=10,25=1,30=1,33=2,116=1,187=7/1,2,3;
 4/10=1,33=2/1;
 5/5=2,33=2,38=5/2;
 6/7=2,8=2,9=2,10=2,28=1/1;
 99/5=1,9=1/99;
 Leave Link    1 at Wed Jun 15 18:17:14 2022, MaxMem=  6710886400 cpu:               0.1 elap:               0.1
 (Enter /home/software/gaussian/gdv/j19/gdv/l101.exe)
 ---
 hcn
 ---
 Symbolic Z-matrix:
 Charge =  0 Multiplicity = 1
 c                     0.        0.       -0.49687 
 h                     0.        0.       -1.56687 
 n                     0.        0.        0.64973 
 
 ITRead=  0  0  0
 MicOpt= -1 -1 -1
 NAtoms=      3 NQM=        3 NQMF=       0 NMMI=      0 NMMIF=      0
                NMic=       0 NMicF=      0.
                    Isotopes and Nuclear Properties:
 (Nuclear quadrupole moments (NQMom) in fm**2, nuclear magnetic moments (NMagM)
  in nuclear magnetons)

  Atom         1           2           3
 IAtWgt=          12           1          14
 AtmWgt=  12.0000000   1.0078250  14.0030740
 NucSpn=           0           1           2
 AtZEff=   0.0000000   0.0000000   0.0000000
 NQMom=    0.0000000   0.0000000   2.0440000
 NMagM=    0.0000000   2.7928460   0.4037610
 AtZNuc=   6.0000000   1.0000000   7.0000000
 Leave Link  101 at Wed Jun 15 18:17:14 2022, MaxMem=  6710886400 cpu:               0.2 elap:               0.2
 (Enter /home/software/gaussian/gdv/j19/gdv/l202.exe)
                          Input orientation:                          
 ---------------------------------------------------------------------
 Center     Atomic      Atomic             Coordinates (Angstroms)
 Number     Number       Type             X           Y           Z
 ---------------------------------------------------------------------
      1          6           0        0.000000    0.000000   -0.496871
      2          1           0        0.000000    0.000000   -1.566871
      3          7           0        0.000000    0.000000    0.649729
 ---------------------------------------------------------------------
                    Distance matrix (angstroms):
                    1          2          3
     1  C    0.000000
     2  H    1.070000   0.000000
     3  N    1.146600   2.216600   0.000000
 Symmetry turned off by external request.
 Stoichiometry    CHN
 Framework group  C*V[C*(HCN)]
 Deg. of freedom     2
 Full point group                 C*V     NOp   4
 Rotational constants (GHZ):           0.0000000          44.8885632          44.8885632
 Leave Link  202 at Wed Jun 15 18:17:14 2022, MaxMem=  6710886400 cpu:               0.0 elap:               0.0
 (Enter /home/software/gaussian/gdv/j19/gdv/l301.exe)
                         Coordinates in L301:                         
 ---------------------------------------------------------------------
 Center     Atomic      Atomic             Coordinates (Angstroms)
 Number     Number       Type             X           Y           Z
 ---------------------------------------------------------------------
      1          6           0        0.000000    0.000000   -0.496871
      2          1           0        0.000000    0.000000   -1.566871
      3          7           0        0.000000    0.000000    0.649729
 ---------------------------------------------------------------------
 Standard basis: CC-pVDZ (5D, 7F)
 FixB: optimizing general contractions.
 Ernie: Thresh=  0.10000D-02 Tol=  0.10000D-05 Strict=F.
 IA=     1 ShT= 0 ShC= 0 NL=   3 NS=   1.
         I=   1 JX=   1 NP=   8
         I=   2 JX=   2 NP=   8
         I=   3 JX=   3 NP=   1
 IA=     1 L=0 SC=0 ISt=    1 NBk=    2 NP=    8 IndPr=    0.
 DoElim1:  L=0 select primitive    2 from    2 using    1 C= 5.33D-03
 DoElim2:  L=0 select primitive    8 from    1 using    2 C= 5.48D-01
 Delete L=0 primitive    2 from    2 C=  3.83D-20.
 Delete L=0 primitive    8 from    1 C=  7.71D-19.
 IA=     1 L=0 SC=0 ISt=    0 NBk=    0 NP=    0 IndPr=   14.
 IA=     1 ShT= 1 ShC= 1 NL=   2 NS=   1.
         I=   1 JX=   4 NP=   3
         I=   2 JX=   5 NP=   1
 IA=     1 L=1 SC=1 ISt=    0 NBk=    0 NP=    0 IndPr=    0.
 IA=     1 ShT= 2 ShC= 2 NL=   1 NS=   1.
         I=   1 JX=   1 NP=   8
 IA=     1 L=2 SC=2 ISt=    0 NBk=    0 NP=    0 IndPr=    0.
 IA=     2 ShT= 0 ShC= 0 NL=   2 NS=   1.
         I=   1 JX=   7 NP=   3
         I=   2 JX=   8 NP=   1
 IA=     2 L=0 SC=0 ISt=    0 NBk=    0 NP=    0 IndPr=    0.
 IA=     2 ShT= 1 ShC= 1 NL=   1 NS=   1.
         I=   1 JX=   1 NP=   8
 IA=     2 L=1 SC=1 ISt=    0 NBk=    0 NP=    0 IndPr=    0.
 IA=     3 ShT= 0 ShC= 0 NL=   3 NS=   1.
         I=   1 JX=  10 NP=   8
         I=   2 JX=  11 NP=   8
         I=   3 JX=  12 NP=   1
 IA=     3 L=0 SC=0 ISt=    1 NBk=    2 NP=    8 IndPr=    0.
 DoElim1:  L=0 select primitive    2 from    2 using    1 C= 5.39D-03
 DoElim2:  L=0 select primitive    8 from    1 using    2 C= 5.52D-01
 Delete L=0 primitive    2 from    2 C=  3.14D-20.
 Delete L=0 primitive    8 from    1 C=  5.91D-19.
 IA=     3 L=0 SC=0 ISt=    0 NBk=    0 NP=    0 IndPr=   14.
 IA=     3 ShT= 1 ShC= 1 NL=   2 NS=   1.
         I=   1 JX=  13 NP=   3
         I=   2 JX=  14 NP=   1
 IA=     3 L=1 SC=1 ISt=    0 NBk=    0 NP=    0 IndPr=    0.
 IA=     3 ShT= 2 ShC= 2 NL=   1 NS=   1.
         I=   1 JX=   1 NP=   8
 IA=     3 L=2 SC=2 ISt=    0 NBk=    0 NP=    0 IndPr=    0.
 Ernie:  4 primitive shells out of 49 were deleted.
    33 AO functions
 Electric field displacement of shell     1 is  0.00D+00
 Electric field displacement of shell     2 is  0.00D+00
 Electric field displacement of shell     3 is  0.00D+00
 Electric field displacement of shell     4 is  0.00D+00
 Electric field displacement of shell     5 is  0.00D+00
 Electric field displacement of shell     6 is  0.00D+00
 Electric field displacement of shell     7 is  0.00D+00
 Electric field displacement of shell     8 is  0.00D+00
 Electric field displacement of shell     9 is  0.00D+00
 Electric field displacement of shell    10 is  0.00D+00
 Electric field displacement of shell    11 is  0.00D+00
 Electric field displacement of shell    12 is  0.00D+00
 Electric field displacement of shell    13 is  0.00D+00
 Electric field displacement of shell    14 is  0.00D+00
 Electric field displacement of shell    15 is  0.00D+00
 AO basis set in the form of general basis input (Overlap normalization):
      1 0
 S   7 1.00       0.000000000000
      0.6665000000D+04  0.6935163173D-03
      0.1000000000D+04  0.5341502433D-02
      0.2280000000D+03  0.2713667141D-01
      0.6471000000D+02  0.1019923853D+00
      0.2106000000D+02  0.2755086365D+00
      0.7495000000D+01  0.4510864331D+00
      0.2797000000D+01  0.2875657448D+00
 S   7 1.00       0.000000000000
      0.6665000000D+04  0.7733547404D-05
      0.2280000000D+03  0.2780721367D-03
      0.6471000000D+02 -0.2578756542D-02
      0.2106000000D+02 -0.8950876838D-02
      0.7495000000D+01 -0.1060588547D+00
      0.2797000000D+01 -0.1315176856D+00
      0.5215000000D+00  0.1099486598D+01
 S   1 1.00       0.000000000000
      0.1596000000D+00  0.1000000000D+01
 P   3 1.00       0.000000000000
      0.9439000000D+01  0.5697925159D-01
      0.2002000000D+01  0.3132072115D+00
      0.5456000000D+00  0.7603767417D+00
 P   1 1.00       0.000000000000
      0.1517000000D+00  0.1000000000D+01
 D   1 1.00       0.000000000000
      0.5500000000D+00  0.1000000000D+01
 ****
      2 0
 S   3 1.00       0.000000000000
      0.1301000000D+02  0.3349872639D-01
      0.1962000000D+01  0.2348008012D+00
      0.4446000000D+00  0.8136829579D+00
 S   1 1.00       0.000000000000
      0.1220000000D+00  0.1000000000D+01
 P   1 1.00       0.000000000000
      0.7270000000D+00  0.1000000000D+01
 ****
      3 0
 S   7 1.00       0.000000000000
      0.9046000000D+04  0.7017087426D-03
      0.1357000000D+04  0.5402998803D-02
      0.3093000000D+03  0.2747295103D-01
      0.8773000000D+02  0.1035145797D+00
      0.2856000000D+02  0.2795865786D+00
      0.1021000000D+02  0.4513172405D+00
      0.3838000000D+01  0.2806268749D+00
 S   7 1.00       0.000000000000
      0.9046000000D+04  0.7774467966D-05
      0.3093000000D+03  0.3007420716D-03
      0.8773000000D+02 -0.2800165487D-02
      0.2856000000D+02 -0.9897085049D-02
      0.1021000000D+02 -0.1143311135D+00
      0.3838000000D+01 -0.1181623826D+00
      0.7466000000D+00  0.1097868854D+01
 S   1 1.00       0.000000000000
      0.2248000000D+00  0.1000000000D+01
 P   3 1.00       0.000000000000
      0.1355000000D+02  0.5890567677D-01
      0.2917000000D+01  0.3204611067D+00
      0.7973000000D+00  0.7530420618D+00
 P   1 1.00       0.000000000000
      0.2185000000D+00  0.1000000000D+01
 D   1 1.00       0.000000000000
      0.8170000000D+00  0.1000000000D+01
 ****
  
 LdAtmC:  AtmChg=     6.000000     1.000000     7.000000
 AtDip 
                 1             2             3 
      1   0.000000D+00  0.000000D+00  0.000000D+00
      2   0.000000D+00  0.000000D+00  0.000000D+00
      3   0.000000D+00  0.000000D+00  0.000000D+00
 AtQua 
                 1             2             3             4             5 
      1   0.000000D+00  0.000000D+00  0.000000D+00  0.000000D+00  0.000000D+00
      2   0.000000D+00  0.000000D+00  0.000000D+00  0.000000D+00  0.000000D+00
      3   0.000000D+00  0.000000D+00  0.000000D+00  0.000000D+00  0.000000D+00
                 6 
      1   0.000000D+00
      2   0.000000D+00
      3   0.000000D+00
 AtPol 
                 1 
      1   0.000000D+00
      2   0.000000D+00
      3   0.000000D+00
 GetPMM: IRwPM=    824 LRwPM=      0 LPMAll=      2
 General NEO basis read from cards:  (5D, 7F)
 Centers:       2
 S 1 1.00
     Exponent=  3.1997000000D+01 Coefficients=  1.0000000000D+00
 S 1 1.00
     Exponent=  1.6010000000D+01 Coefficients=  1.0000000000D+00
 S 1 1.00
     Exponent=  8.7340000000D+00 Coefficients=  1.0000000000D+00
 S 1 1.00
     Exponent=  1.9570000000D+00 Coefficients=  1.0000000000D+00
 P 1 1.00
     Exponent=  2.4028000000D+01 Coefficients=  1.0000000000D+00
 P 1 1.00
     Exponent=  1.3795000000D+01 Coefficients=  1.0000000000D+00
 P 1 1.00
     Exponent=  9.4380000000D+00 Coefficients=  1.0000000000D+00
 D 1 1.00
     Exponent=  1.9016000000D+01 Coefficients=  1.0000000000D+00
 D 1 1.00
     Exponent=  1.0524000000D+01 Coefficients=  1.0000000000D+00
 ****
    23 NEO functions
 Electric field displacement of shell     1 is  0.00D+00
 Electric field displacement of shell     2 is  0.00D+00
 Electric field displacement of shell     3 is  0.00D+00
 Electric field displacement of shell     4 is  0.00D+00
 Electric field displacement of shell     5 is  0.00D+00
 Electric field displacement of shell     6 is  0.00D+00
 Electric field displacement of shell     7 is  0.00D+00
 Electric field displacement of shell     8 is  0.00D+00
 Electric field displacement of shell     9 is  0.00D+00
 NEO basis set in the form of general basis input (Overlap normalization):
      2 0
 S   1 1.00       0.000000000000
      0.3199700000D+02  0.1000000000D+01
 S   1 1.00       0.000000000000
      0.1601000000D+02  0.1000000000D+01
 S   1 1.00       0.000000000000
      0.8734000000D+01  0.1000000000D+01
 S   1 1.00       0.000000000000
      0.1957000000D+01  0.1000000000D+01
 P   1 1.00       0.000000000000
      0.2402800000D+02  0.1000000000D+01
 P   1 1.00       0.000000000000
      0.1379500000D+02  0.1000000000D+01
 P   1 1.00       0.000000000000
      0.9438000000D+01  0.1000000000D+01
 D   1 1.00       0.000000000000
      0.1901600000D+02  0.1000000000D+01
 D   1 1.00       0.000000000000
      0.1052400000D+02  0.1000000000D+01
 ****
  
 Using NEO mass 1836.152656 electrons.
 AtZEff=     -3.6000000     -1.0000000     -4.5500000
    33 basis functions,    73 primitive gaussians,    25 cartesian basis functions
     7 alpha electrons        7 beta electrons
       nuclear repulsion energy        19.3837806198 Hartrees.
 IS=     1 IAt=     1 ISR=     1 T=0 IP=      1 IndIP=      1 IndIPD=      0 C=  3.646002D-01  0.000000D+00                             NZ=T
 IS=     1 IAt=     1 ISR=     1 T=0 IP=      2 IndIP=      2 IndIPD=      1 C=  6.769764D-01  0.000000D+00                             NZ=T
 IS=     1 IAt=     1 ISR=     1 T=0 IP=      3 IndIP=      3 IndIPD=      2 C=  1.134796D+00  0.000000D+00                             NZ=T
 IS=     1 IAt=     1 ISR=     1 T=0 IP=      4 IndIP=      4 IndIPD=      3 C=  1.658465D+00  0.000000D+00                             NZ=T
 IS=     1 IAt=     1 ISR=     1 T=0 IP=      5 IndIP=      5 IndIPD=      4 C=  1.930363D+00  0.000000D+00                             NZ=T
 IS=     1 IAt=     1 ISR=     1 T=0 IP=      6 IndIP=      6 IndIPD=      5 C=  1.456292D+00  0.000000D+00                             NZ=T
 IS=     1 IAt=     1 ISR=     1 T=0 IP=      7 IndIP=      7 IndIPD=      6 C=  4.432682D-01  0.000000D+00                             NZ=T
 IS=     2 IAt=     1 ISR=     2 T=0 IP=      1 IndIP=      8 IndIPD=      0 C=  4.065734D-03  0.000000D+00                             NZ=T
 IS=     2 IAt=     1 ISR=     2 T=0 IP=      2 IndIP=      9 IndIPD=      1 C=  1.162837D-02  0.000000D+00                             NZ=T
 IS=     2 IAt=     1 ISR=     2 T=0 IP=      3 IndIP=     10 IndIPD=      2 C= -4.193233D-02  0.000000D+00                             NZ=T
 IS=     2 IAt=     1 ISR=     2 T=0 IP=      4 IndIP=     11 IndIPD=      3 C= -6.271471D-02  0.000000D+00                             NZ=T
 IS=     2 IAt=     1 ISR=     2 T=0 IP=      5 IndIP=     12 IndIPD=      4 C= -3.424016D-01  0.000000D+00                             NZ=T
 IS=     2 IAt=     1 ISR=     2 T=0 IP=      6 IndIP=     13 IndIPD=      5 C= -2.027279D-01  0.000000D+00                             NZ=T
 IS=     2 IAt=     1 ISR=     2 T=0 IP=      7 IndIP=     14 IndIPD=      6 C=  4.808845D-01  0.000000D+00                             NZ=T
 IS=     3 IAt=     1 ISR=     3 T=0 IP=      1 IndIP=     15 IndIPD=      0 C=  1.799636D-01  0.000000D+00                             NZ=T
 IS=     4 IAt=     1 ISR=     4 T=1 IP=      1 IndIP=     16 IndIPD=      0 C=  0.000000D+00  1.343737D+00                             NZ=T
 IS=     4 IAt=     1 ISR=     4 T=1 IP=      2 IndIP=     17 IndIPD=      1 C=  0.000000D+00  1.063168D+00                             NZ=T
 IS=     4 IAt=     1 ISR=     4 T=1 IP=      3 IndIP=     18 IndIPD=      2 C=  0.000000D+00  5.082318D-01                             NZ=T
 IS=     5 IAt=     1 ISR=     5 T=1 IP=      1 IndIP=     19 IndIPD=      0 C=  0.000000D+00  1.349497D-01                             NZ=T
 IS=     6 IAt=     1 ISR=     6 T=2 IP=      1 IndIP=     20 IndIPD=      1 C=  0.000000D+00  0.000000D+00  5.781548D-01  0.000000D+00 NZ=T
 IS=     7 IAt=     2 ISR=     1 T=0 IP=      1 IndIP=     21 IndIPD=      0 C=  1.635484D-01  0.000000D+00                             NZ=T
 IS=     7 IAt=     2 ISR=     1 T=0 IP=      2 IndIP=     22 IndIPD=      1 C=  2.774175D-01  0.000000D+00                             NZ=T
 IS=     7 IAt=     2 ISR=     1 T=0 IP=      3 IndIP=     23 IndIPD=      2 C=  3.157493D-01  0.000000D+00                             NZ=T
 IS=     8 IAt=     2 ISR=     2 T=0 IP=      1 IndIP=     24 IndIPD=      0 C=  1.471228D-01  0.000000D+00                             NZ=T
 IS=     9 IAt=     2 ISR=     3 T=1 IP=      1 IndIP=     25 IndIPD=      0 C=  0.000000D+00  9.568814D-01                             NZ=T
 IS=    10 IAt=     3 ISR=     1 T=0 IP=      1 IndIP=     26 IndIPD=      0 C=  4.638840D-01  0.000000D+00                             NZ=T
 IS=    10 IAt=     3 ISR=     1 T=0 IP=      2 IndIP=     27 IndIPD=      1 C=  8.609538D-01  0.000000D+00                             NZ=T
 IS=    10 IAt=     3 ISR=     1 T=0 IP=      3 IndIP=     28 IndIPD=      2 C=  1.444110D+00  0.000000D+00                             NZ=T
 IS=    10 IAt=     3 ISR=     1 T=0 IP=      4 IndIP=     29 IndIPD=      3 C=  2.114817D+00  0.000000D+00                             NZ=T
 IS=    10 IAt=     3 ISR=     1 T=0 IP=      5 IndIP=     30 IndIPD=      4 C=  2.461756D+00  0.000000D+00                             NZ=T
 IS=    10 IAt=     3 ISR=     1 T=0 IP=      6 IndIP=     31 IndIPD=      5 C=  1.837221D+00  0.000000D+00                             NZ=T
 IS=    10 IAt=     3 ISR=     1 T=0 IP=      7 IndIP=     32 IndIPD=      6 C=  5.484261D-01  0.000000D+00                             NZ=T
 IS=    11 IAt=     3 ISR=     2 T=0 IP=      1 IndIP=     33 IndIPD=      0 C=  5.139528D-03  0.000000D+00                             NZ=T
 IS=    11 IAt=     3 ISR=     2 T=0 IP=      2 IndIP=     34 IndIPD=      1 C=  1.580845D-02  0.000000D+00                             NZ=T
 IS=    11 IAt=     3 ISR=     2 T=0 IP=      3 IndIP=     35 IndIPD=      2 C= -5.720775D-02  0.000000D+00                             NZ=T
 IS=    11 IAt=     3 ISR=     2 T=0 IP=      4 IndIP=     36 IndIPD=      3 C= -8.714371D-02  0.000000D+00                             NZ=T
 IS=    11 IAt=     3 ISR=     2 T=0 IP=      5 IndIP=     37 IndIPD=      4 C= -4.654187D-01  0.000000D+00                             NZ=T
 IS=    11 IAt=     3 ISR=     2 T=0 IP=      6 IndIP=     38 IndIPD=      5 C= -2.309235D-01  0.000000D+00                             NZ=T
 IS=    11 IAt=     3 ISR=     2 T=0 IP=      7 IndIP=     39 IndIPD=      6 C=  6.284584D-01  0.000000D+00                             NZ=T
 IS=    12 IAt=     3 ISR=     3 T=0 IP=      1 IndIP=     40 IndIPD=      0 C=  2.326791D-01  0.000000D+00                             NZ=T
 IS=    13 IAt=     3 ISR=     4 T=1 IP=      1 IndIP=     41 IndIPD=      0 C=  0.000000D+00  2.182837D+00                             NZ=T
 IS=    13 IAt=     3 ISR=     4 T=1 IP=      2 IndIP=     42 IndIPD=      1 C=  0.000000D+00  1.741350D+00                             NZ=T
 IS=    13 IAt=     3 ISR=     4 T=1 IP=      3 IndIP=     43 IndIPD=      2 C=  0.000000D+00  8.086983D-01                             NZ=T
 IS=    14 IAt=     3 ISR=     5 T=1 IP=      1 IndIP=     44 IndIPD=      0 C=  0.000000D+00  2.129386D-01                             NZ=T
 IS=    15 IAt=     3 ISR=     6 T=2 IP=      1 IndIP=     45 IndIPD=      2 C=  0.000000D+00  0.000000D+00  1.155575D+00  0.000000D+00 NZ=T
 IExCor=         0 DFT=F Ex=HF Corr=None N6=None ScaHFX=  1.000000
 ScaDFX=  1.000000  1.000000  1.000000  1.000000  1.000000  0.000000
 ScaDFX=  0.000000  0.000000  0.000000  0.000000  0.000000  0.000000
 IRadAn=      5 IRanWt=     -1 IRanGd=            0 ICorTp=0 IEmpDi=  4
 NAtoms=    3 NActive=    3 NUniq=    3 SFac= 1.00D+00 NAtFMM=   60 NAOKFM=F Big=F
 Integral buffers will be    131072 words long.
 Raffenetti 1 integral format.
 Two-electron integral symmetry is turned off.
 AtDip 
                 1             2             3 
      1   0.000000D+00  0.000000D+00  0.000000D+00
      2   0.000000D+00  0.000000D+00  0.000000D+00
      3   0.000000D+00  0.000000D+00  0.000000D+00
 AtQua 
                 1             2             3             4             5 
      1   0.000000D+00  0.000000D+00  0.000000D+00  0.000000D+00  0.000000D+00
      2   0.000000D+00  0.000000D+00  0.000000D+00  0.000000D+00  0.000000D+00
      3   0.000000D+00  0.000000D+00  0.000000D+00  0.000000D+00  0.000000D+00
                 6 
      1   0.000000D+00
      2   0.000000D+00
      3   0.000000D+00
 AtPol 
                 1 
      1   0.000000D+00
      2   0.000000D+00
      3   0.000000D+00
 Pair potential:
 Leave Link  301 at Wed Jun 15 18:17:15 2022, MaxMem=  6710886400 cpu:               0.2 elap:               0.2
 (Enter /home/software/gaussian/gdv/j19/gdv/l302.exe)
 GetPMM: IRwPM=    824 LRwPM=      0 LPMAll=      2
 AtDip 
                 1             2             3 
      1   0.000000D+00  0.000000D+00  0.000000D+00
      2   0.000000D+00  0.000000D+00  0.000000D+00
      3   0.000000D+00  0.000000D+00  0.000000D+00
 AtQua 
                 1             2             3             4             5 
      1   0.000000D+00  0.000000D+00  0.000000D+00  0.000000D+00  0.000000D+00
      2   0.000000D+00  0.000000D+00  0.000000D+00  0.000000D+00  0.000000D+00
      3   0.000000D+00  0.000000D+00  0.000000D+00  0.000000D+00  0.000000D+00
                 6 
      1   0.000000D+00
      2   0.000000D+00
      3   0.000000D+00
 AtPol 
                 1 
      1   0.000000D+00
      2   0.000000D+00
      3   0.000000D+00
 NPDir=0 NMtPBC=     1 NCelOv=     1 NCel=       1 NClECP=     1 NCelD=      1
         NCelK=      1 NCelE2=     1 NClLst=     1 CellRange=     0.0.
 One-electron integrals computed using PRISM.
 Entering OneElI...
 OneElI was handed  6710884817 working-precision words.
 Calculate overlap and kinetic energy integrals
    NBasis =  23  MinDer = 0  MaxDer = 0
 Requested accuracy = 0.1000D-12
 ShPair: Thresh= 1.00D-13 NBox=     0 BxSize= 0.00D+00 RnKept= 0.00D+00
         NSMCal=                   45 NSMKep=                  45
 PrSmSu:  IncTry=   512 NBBP=             45 NTPThr=   100 NPartT=    1 Incr=           1 LDynOK=F GPUOK=F.
 PrsmSu:  NPrtUS=   1 ThrOK=F IAlg=2 LenDen=           0 ISkipM=0 DoSpLW=F IThBeg=    0 IThEnd=    0.
 Prism:   IPart=     0 DynPar=F LinDyn=F Incr=           1.
 PRISM was handed  6710881579 working-precision words and    45 shell-pairs
 IPart=  0 NShTot=          45 NBatch=           6 AvBLen=         7.5
 PrsmSu-ThDecC:  IPartSL=    0    0 NPrtUSL=    1    1 IThBeg=    0 IThEnd=    0 CPU=   -1 GPU=   -1 NThAct=    0.
 PrSmSu:  NxtVal=              2.
 *** NEO Overlap *** 
                1             2             3             4             5 
      1  0.100000D+01
      2  0.915616D+00  0.100000D+01
      3  0.743702D+00  0.934423D+00  0.100000D+01
      4  0.318225D+00  0.491834D+00  0.680175D+00  0.100000D+01
      5  0.000000D+00  0.000000D+00  0.000000D+00  0.000000D+00  0.100000D+01
      6  0.000000D+00  0.000000D+00  0.000000D+00  0.000000D+00  0.000000D+00
      7  0.000000D+00  0.000000D+00  0.000000D+00  0.000000D+00  0.000000D+00
      8  0.000000D+00  0.000000D+00  0.000000D+00  0.000000D+00  0.909357D+00
      9  0.000000D+00  0.000000D+00  0.000000D+00  0.000000D+00  0.000000D+00
     10  0.000000D+00  0.000000D+00  0.000000D+00  0.000000D+00  0.000000D+00
     11  0.000000D+00  0.000000D+00  0.000000D+00  0.000000D+00  0.768356D+00
     12  0.000000D+00  0.000000D+00  0.000000D+00  0.000000D+00  0.000000D+00
     13  0.000000D+00  0.000000D+00  0.000000D+00  0.000000D+00  0.000000D+00
     14  0.000000D+00  0.000000D+00  0.000000D+00  0.000000D+00  0.000000D+00
     15  0.000000D+00  0.000000D+00  0.000000D+00  0.000000D+00  0.000000D+00
     16  0.000000D+00  0.000000D+00  0.000000D+00  0.000000D+00  0.000000D+00
     17  0.000000D+00  0.000000D+00  0.000000D+00  0.000000D+00  0.000000D+00
     18  0.000000D+00  0.000000D+00  0.000000D+00  0.000000D+00  0.000000D+00
     19  0.000000D+00  0.000000D+00  0.000000D+00  0.000000D+00  0.000000D+00
     20  0.000000D+00  0.000000D+00  0.000000D+00  0.000000D+00  0.000000D+00
     21  0.000000D+00  0.000000D+00  0.000000D+00  0.000000D+00  0.000000D+00
     22  0.000000D+00  0.000000D+00  0.000000D+00  0.000000D+00  0.000000D+00
     23  0.000000D+00  0.000000D+00  0.000000D+00  0.000000D+00  0.000000D+00
                6             7             8             9            10 
      6  0.100000D+01
      7  0.000000D+00  0.100000D+01
      8  0.000000D+00  0.000000D+00  0.100000D+01
      9  0.909357D+00  0.000000D+00  0.000000D+00  0.100000D+01
     10  0.000000D+00  0.909357D+00  0.000000D+00  0.000000D+00  0.100000D+01
     11  0.000000D+00  0.000000D+00  0.956233D+00  0.000000D+00  0.000000D+00
     12  0.768356D+00  0.000000D+00  0.000000D+00  0.956233D+00  0.000000D+00
     13  0.000000D+00  0.768356D+00  0.000000D+00  0.000000D+00  0.956233D+00
     14  0.000000D+00  0.000000D+00  0.000000D+00  0.000000D+00  0.000000D+00
     15  0.000000D+00  0.000000D+00  0.000000D+00  0.000000D+00  0.000000D+00
     16  0.000000D+00  0.000000D+00  0.000000D+00  0.000000D+00  0.000000D+00
     17  0.000000D+00  0.000000D+00  0.000000D+00  0.000000D+00  0.000000D+00
     18  0.000000D+00  0.000000D+00  0.000000D+00  0.000000D+00  0.000000D+00
     19  0.000000D+00  0.000000D+00  0.000000D+00  0.000000D+00  0.000000D+00
     20  0.000000D+00  0.000000D+00  0.000000D+00  0.000000D+00  0.000000D+00
     21  0.000000D+00  0.000000D+00  0.000000D+00  0.000000D+00  0.000000D+00
     22  0.000000D+00  0.000000D+00  0.000000D+00  0.000000D+00  0.000000D+00
     23  0.000000D+00  0.000000D+00  0.000000D+00  0.000000D+00  0.000000D+00
               11            12            13            14            15 
     11  0.100000D+01
     12  0.000000D+00  0.100000D+01
     13  0.000000D+00  0.000000D+00  0.100000D+01
     14  0.000000D+00  0.000000D+00  0.000000D+00  0.100000D+01
     15  0.000000D+00  0.000000D+00  0.000000D+00  0.000000D+00  0.100000D+01
     16  0.000000D+00  0.000000D+00  0.000000D+00  0.000000D+00  0.000000D+00
     17  0.000000D+00  0.000000D+00  0.000000D+00  0.000000D+00  0.000000D+00
     18  0.000000D+00  0.000000D+00  0.000000D+00  0.000000D+00  0.000000D+00
     19  0.000000D+00  0.000000D+00  0.000000D+00  0.859891D+00  0.000000D+00
     20  0.000000D+00  0.000000D+00  0.000000D+00  0.000000D+00  0.859891D+00
     21  0.000000D+00  0.000000D+00  0.000000D+00  0.000000D+00  0.000000D+00
     22  0.000000D+00  0.000000D+00  0.000000D+00  0.000000D+00  0.000000D+00
     23  0.000000D+00  0.000000D+00  0.000000D+00  0.000000D+00  0.000000D+00
               16            17            18            19            20 
     16  0.100000D+01
     17  0.000000D+00  0.100000D+01
     18  0.000000D+00  0.000000D+00  0.100000D+01
     19  0.000000D+00  0.000000D+00  0.000000D+00  0.100000D+01
     20  0.000000D+00  0.000000D+00  0.000000D+00  0.000000D+00  0.100000D+01
     21  0.859891D+00  0.000000D+00  0.000000D+00  0.000000D+00  0.000000D+00
     22  0.000000D+00  0.859891D+00  0.000000D+00  0.000000D+00  0.000000D+00
     23  0.000000D+00  0.000000D+00  0.859891D+00  0.000000D+00  0.000000D+00
               21            22            23 
     21  0.100000D+01
     22  0.000000D+00  0.100000D+01
     23  0.000000D+00  0.000000D+00  0.100000D+01
 *** NEO Kinetic Energy *** 
                1             2             3             4             5 
      1  0.261392D-01
      2  0.159633D-01  0.130790D-01
      3  0.833699D-02  0.862761D-02  0.713503D-02
      4  0.958860D-03  0.140132D-02  0.177672D-02  0.159872D-02
      5  0.000000D+00  0.000000D+00  0.000000D+00  0.000000D+00  0.327151D-01
      6  0.000000D+00  0.000000D+00  0.000000D+00  0.000000D+00  0.000000D+00
      7  0.000000D+00  0.000000D+00  0.000000D+00  0.000000D+00  0.000000D+00
      8  0.000000D+00  0.000000D+00  0.000000D+00  0.000000D+00  0.217010D-01
      9  0.000000D+00  0.000000D+00  0.000000D+00  0.000000D+00  0.000000D+00
     10  0.000000D+00  0.000000D+00  0.000000D+00  0.000000D+00  0.000000D+00
     11  0.000000D+00  0.000000D+00  0.000000D+00  0.000000D+00  0.141781D-01
     12  0.000000D+00  0.000000D+00  0.000000D+00  0.000000D+00  0.000000D+00
     13  0.000000D+00  0.000000D+00  0.000000D+00  0.000000D+00  0.000000D+00
     14  0.000000D+00  0.000000D+00  0.000000D+00  0.000000D+00  0.000000D+00
     15  0.000000D+00  0.000000D+00  0.000000D+00  0.000000D+00  0.000000D+00
     16  0.000000D+00  0.000000D+00  0.000000D+00  0.000000D+00  0.000000D+00
     17  0.000000D+00  0.000000D+00  0.000000D+00  0.000000D+00  0.000000D+00
     18  0.000000D+00  0.000000D+00  0.000000D+00  0.000000D+00  0.000000D+00
     19  0.000000D+00  0.000000D+00  0.000000D+00  0.000000D+00  0.000000D+00
     20  0.000000D+00  0.000000D+00  0.000000D+00  0.000000D+00  0.000000D+00
     21  0.000000D+00  0.000000D+00  0.000000D+00  0.000000D+00  0.000000D+00
     22  0.000000D+00  0.000000D+00  0.000000D+00  0.000000D+00  0.000000D+00
     23  0.000000D+00  0.000000D+00  0.000000D+00  0.000000D+00  0.000000D+00
                6             7             8             9            10 
      6  0.327151D-01
      7  0.000000D+00  0.327151D-01
      8  0.000000D+00  0.000000D+00  0.187825D-01
      9  0.217010D-01  0.000000D+00  0.000000D+00  0.187825D-01
     10  0.000000D+00  0.217010D-01  0.000000D+00  0.000000D+00  0.187825D-01
     11  0.000000D+00  0.000000D+00  0.145922D-01  0.000000D+00  0.000000D+00
     12  0.141781D-01  0.000000D+00  0.000000D+00  0.145922D-01  0.000000D+00
     13  0.000000D+00  0.141781D-01  0.000000D+00  0.000000D+00  0.145922D-01
     14  0.000000D+00  0.000000D+00  0.000000D+00  0.000000D+00  0.000000D+00
     15  0.000000D+00  0.000000D+00  0.000000D+00  0.000000D+00  0.000000D+00
     16  0.000000D+00  0.000000D+00  0.000000D+00  0.000000D+00  0.000000D+00
     17  0.000000D+00  0.000000D+00  0.000000D+00  0.000000D+00  0.000000D+00
     18  0.000000D+00  0.000000D+00  0.000000D+00  0.000000D+00  0.000000D+00
     19  0.000000D+00  0.000000D+00  0.000000D+00  0.000000D+00  0.000000D+00
     20  0.000000D+00  0.000000D+00  0.000000D+00  0.000000D+00  0.000000D+00
     21  0.000000D+00  0.000000D+00  0.000000D+00  0.000000D+00  0.000000D+00
     22  0.000000D+00  0.000000D+00  0.000000D+00  0.000000D+00  0.000000D+00
     23  0.000000D+00  0.000000D+00  0.000000D+00  0.000000D+00  0.000000D+00
               11            12            13            14            15 
     11  0.128502D-01
     12  0.000000D+00  0.128502D-01
     13  0.000000D+00  0.000000D+00  0.128502D-01
     14  0.000000D+00  0.000000D+00  0.000000D+00  0.362475D-01
     15  0.000000D+00  0.000000D+00  0.000000D+00  0.000000D+00  0.362475D-01
     16  0.000000D+00  0.000000D+00  0.000000D+00  0.000000D+00  0.000000D+00
     17  0.000000D+00  0.000000D+00  0.000000D+00  0.000000D+00  0.000000D+00
     18  0.000000D+00  0.000000D+00  0.000000D+00  0.000000D+00  0.000000D+00
     19  0.000000D+00  0.000000D+00  0.000000D+00  0.222086D-01  0.000000D+00
     20  0.000000D+00  0.000000D+00  0.000000D+00  0.000000D+00  0.222086D-01
     21  0.000000D+00  0.000000D+00  0.000000D+00  0.000000D+00  0.000000D+00
     22  0.000000D+00  0.000000D+00  0.000000D+00  0.000000D+00  0.000000D+00
     23  0.000000D+00  0.000000D+00  0.000000D+00  0.000000D+00  0.000000D+00
               16            17            18            19            20 
     16  0.362475D-01
     17  0.000000D+00  0.362475D-01
     18  0.000000D+00  0.000000D+00  0.362475D-01
     19  0.000000D+00  0.000000D+00  0.000000D+00  0.200604D-01
     20  0.000000D+00  0.000000D+00  0.000000D+00  0.000000D+00  0.200604D-01
     21  0.222086D-01  0.000000D+00  0.000000D+00  0.000000D+00  0.000000D+00
     22  0.000000D+00  0.222086D-01  0.000000D+00  0.000000D+00  0.000000D+00
     23  0.000000D+00  0.000000D+00  0.222086D-01  0.000000D+00  0.000000D+00
               21            22            23 
     21  0.200604D-01
     22  0.000000D+00  0.200604D-01
     23  0.000000D+00  0.000000D+00  0.200604D-01
 Entering OneElI...
 OneElI was handed  6710884817 working-precision words.
 Calculate potential energy integrals
    NBasis =  23  MinDer = 0  MaxDer = 0
 Requested accuracy = 0.1000D-12
 ShPair: Thresh= 1.00D-13 NBox=     0 BxSize= 0.00D+00 RnKept= 0.00D+00
         NSMCal=                   45 NSMKep=                  45
 PrSmSu:  IncTry=   512 NBBP=            135 NTPThr=   100 NPartT=    1 Incr=           1 LDynOK=F GPUOK=F.
 PrsmSu:  NPrtUS=   1 ThrOK=F IAlg=2 LenDen=           0 ISkipM=0 DoSpLW=F IThBeg=    0 IThEnd=    0.
 Prism:   IPart=     0 DynPar=F LinDyn=F Incr=           1.
 PRISM was handed  6710881489 working-precision words and    45 shell-pairs
 IPart=  0 NShTot=         135 NBatch=          45 AvBLen=         3.0
 PrsmSu-ThDecC:  IPartSL=    0    0 NPrtUSL=    1    1 IThBeg=    0 IThEnd=    0 CPU=   -1 GPU=   -1 NThAct=   -1.
 PrSmSu:  NxtVal=              2.
 ***** NEO Potential Energy ***** 
                1             2             3             4             5 
      1  0.463849D+01
      2  0.424707D+01  0.463849D+01
      3  0.344965D+01  0.433431D+01  0.463849D+01
      4  0.147608D+01  0.228136D+01  0.315498D+01  0.463848D+01
      5  0.000000D+00  0.000000D+00  0.000000D+00  0.000000D+00  0.462994D+01
      6  0.000000D+00  0.000000D+00  0.000000D+00  0.000000D+00  0.000000D+00
      7  0.160821D+00  0.221605D+00  0.232247D+00  0.135006D+00  0.000000D+00
      8  0.000000D+00  0.000000D+00  0.000000D+00  0.000000D+00  0.420817D+01
      9  0.000000D+00  0.000000D+00  0.000000D+00  0.000000D+00  0.000000D+00
     10  0.133070D+00  0.231628D+00  0.295989D+00  0.235817D+00  0.000000D+00
     11  0.000000D+00  0.000000D+00  0.000000D+00  0.000000D+00  0.355458D+01
     12  0.000000D+00  0.000000D+00  0.000000D+00  0.000000D+00  0.000000D+00
     13  0.106312D+00  0.213958D+00  0.315190D+00  0.329668D+00  0.000000D+00
     14  0.988252D-02  0.219202D-01  0.314346D-01  0.272772D-01  0.000000D+00
     15  0.000000D+00  0.000000D+00  0.000000D+00  0.000000D+00  0.184567D+00
     16  0.000000D+00  0.000000D+00  0.000000D+00  0.000000D+00  0.000000D+00
     17  0.000000D+00  0.000000D+00  0.000000D+00  0.000000D+00  0.000000D+00
     18  0.000000D+00  0.000000D+00  0.000000D+00  0.000000D+00  0.000000D+00
     19  0.663738D-02  0.205712D-01  0.400910D-01  0.595795D-01  0.000000D+00
     20  0.000000D+00  0.000000D+00  0.000000D+00  0.000000D+00  0.141183D+00
     21  0.000000D+00  0.000000D+00  0.000000D+00  0.000000D+00  0.000000D+00
     22  0.000000D+00  0.000000D+00  0.000000D+00  0.000000D+00  0.000000D+00
     23  0.000000D+00  0.000000D+00  0.000000D+00  0.000000D+00  0.000000D+00
                6             7             8             9            10 
      6  0.462994D+01
      7  0.000000D+00  0.465557D+01
      8  0.000000D+00  0.000000D+00  0.462361D+01
      9  0.420817D+01  0.000000D+00  0.000000D+00  0.462361D+01
     10  0.000000D+00  0.423778D+01  0.000000D+00  0.000000D+00  0.466824D+01
     11  0.000000D+00  0.000000D+00  0.441858D+01  0.000000D+00  0.000000D+00
     12  0.355458D+01  0.000000D+00  0.000000D+00  0.441858D+01  0.000000D+00
     13  0.000000D+00  0.358286D+01  0.000000D+00  0.000000D+00  0.446927D+01
     14  0.000000D+00  0.216944D+00  0.000000D+00  0.000000D+00  0.281293D+00
     15  0.000000D+00  0.000000D+00  0.237992D+00  0.000000D+00  0.000000D+00
     16  0.184567D+00  0.000000D+00  0.000000D+00  0.237992D+00  0.000000D+00
     17  0.000000D+00  0.000000D+00  0.000000D+00  0.000000D+00  0.000000D+00
     18  0.000000D+00  0.000000D+00  0.000000D+00  0.000000D+00  0.000000D+00
     19  0.000000D+00  0.166675D+00  0.000000D+00  0.000000D+00  0.286330D+00
     20  0.000000D+00  0.000000D+00  0.240295D+00  0.000000D+00  0.000000D+00
     21  0.141183D+00  0.000000D+00  0.000000D+00  0.240295D+00  0.000000D+00
     22  0.000000D+00  0.000000D+00  0.000000D+00  0.000000D+00  0.000000D+00
     23  0.000000D+00  0.000000D+00  0.000000D+00  0.000000D+00  0.000000D+00
               11            12            13            14            15 
     11  0.461674D+01
     12  0.000000D+00  0.461674D+01
     13  0.000000D+00  0.000000D+00  0.468198D+01
     14  0.000000D+00  0.000000D+00  0.288796D+00  0.466064D+01
     15  0.243472D+00  0.000000D+00  0.000000D+00  0.000000D+00  0.464890D+01
     16  0.000000D+00  0.243472D+00  0.000000D+00  0.000000D+00  0.000000D+00
     17  0.000000D+00  0.000000D+00  0.000000D+00  0.000000D+00  0.000000D+00
     18  0.000000D+00  0.000000D+00  0.000000D+00  0.000000D+00  0.000000D+00
     19  0.000000D+00  0.000000D+00  0.356999D+00  0.401330D+01  0.000000D+00
     20  0.297561D+00  0.000000D+00  0.000000D+00  0.000000D+00  0.400000D+01
     21  0.000000D+00  0.297561D+00  0.000000D+00  0.000000D+00  0.000000D+00
     22  0.000000D+00  0.000000D+00  0.000000D+00  0.000000D+00  0.000000D+00
     23  0.000000D+00  0.000000D+00  0.000000D+00  0.000000D+00  0.000000D+00
               16            17            18            19            20 
     16  0.464890D+01
     17  0.000000D+00  0.461699D+01
     18  0.000000D+00  0.000000D+00  0.461699D+01
     19  0.000000D+00  0.000000D+00  0.000000D+00  0.467935D+01
     20  0.000000D+00  0.000000D+00  0.000000D+00  0.000000D+00  0.465675D+01
     21  0.400000D+01  0.000000D+00  0.000000D+00  0.000000D+00  0.000000D+00
     22  0.000000D+00  0.396483D+01  0.000000D+00  0.000000D+00  0.000000D+00
     23  0.000000D+00  0.000000D+00  0.396483D+01  0.000000D+00  0.000000D+00
               21            22            23 
     21  0.465675D+01
     22  0.000000D+00  0.459979D+01
     23  0.000000D+00  0.000000D+00  0.459979D+01
 Entering OneElI...
 OneElI was handed  6710884817 working-precision words.
 Calculate overlap and kinetic energy integrals
    NBasis =  33  MinDer = 0  MaxDer = 0
 Requested accuracy = 0.1000D-12
 ShPair: Thresh= 1.00D-13 NBox=     0 BxSize= 0.00D+00 RnKept= 4.19D+00
         NSMCal=                  120 NSMKep=                 120
 PrmmSu-InSpLW:  IPartL=    0 NPrtUS=    5 NPrtUL=    1 DoSpLW=F IThBeg=    0 IThEnd=    4 NThAct=    5.
 PrSmSu:  IncTry=   512 NBBP=            120 NTPThr=   100 NPartT=    5 Incr=           1 LDynOK=F GPUOK=F.
 PrsmSu:  NPrtUS=   5 ThrOK=T IAlg=1 LenDen=           0 ISkipM=0 DoSpLW=F IThBeg=    0 IThEnd=    4.
 Prism:   IPart=     0 DynPar=F LinDyn=F Incr=           1.
 PRISM was handed  1342164588 working-precision words and   120 shell-pairs
 PRISM was handed  1342164588 working-precision words and   120 shell-pairs
 PRISM was handed  1342164588 working-precision words and   120 shell-pairs
 PRISM was handed  1342164588 working-precision words and   120 shell-pairs
 PRISM was handed  1342164588 working-precision words and   120 shell-pairs
 IPart=  0 NShTot=          42 NBatch=          28 AvBLen=         1.5
 PrsmSu-ThDecC:  IPartSL=    0    0 NPrtUSL=    5    1 IThBeg=    0 IThEnd=    4 CPU=   -1 GPU=   -1 NThAct=    5.
 IPart=  4 NShTot=          14 NBatch=          12 AvBLen=         1.2
 PrsmSu-ThDecC:  IPartSL=    4    0 NPrtUSL=    5    1 IThBeg=    0 IThEnd=    4 CPU=   -1 GPU=   -1 NThAct=    4.
 IPart=  1 NShTot=          26 NBatch=          19 AvBLen=         1.4
 PrsmSu-ThDecC:  IPartSL=    1    0 NPrtUSL=    5    1 IThBeg=    0 IThEnd=    4 CPU=   -1 GPU=   -1 NThAct=    3.
 IPart=  2 NShTot=          21 NBatch=          16 AvBLen=         1.3
 PrsmSu-ThDecC:  IPartSL=    2    0 NPrtUSL=    5    1 IThBeg=    0 IThEnd=    4 CPU=   -1 GPU=   -1 NThAct=    2.
 IPart=  3 NShTot=          17 NBatch=          13 AvBLen=         1.3
 PrsmSu-ThDecC:  IPartSL=    3    0 NPrtUSL=    5    1 IThBeg=    0 IThEnd=    4 CPU=   -1 GPU=   -1 NThAct=    1.
 PrSmSu:  NxtVal=              6.
 *** Overlap *** 
                1             2             3             4             5 
      1  0.100000D+01
      2  0.206150D+00  0.100000D+01
      3  0.179607D+00  0.800420D+00  0.100000D+01
      4  0.000000D+00  0.000000D+00  0.000000D+00  0.100000D+01
      5  0.000000D+00  0.000000D+00  0.000000D+00  0.000000D+00  0.100000D+01
      6  0.000000D+00  0.000000D+00  0.000000D+00  0.000000D+00  0.000000D+00
      7  0.000000D+00  0.000000D+00  0.000000D+00  0.530759D+00  0.000000D+00
      8  0.000000D+00  0.000000D+00  0.000000D+00  0.000000D+00  0.530759D+00
      9  0.000000D+00  0.000000D+00  0.000000D+00  0.000000D+00  0.000000D+00
     10  0.000000D+00  0.000000D+00  0.000000D+00  0.000000D+00  0.000000D+00
     11  0.000000D+00  0.000000D+00  0.000000D+00  0.000000D+00  0.000000D+00
     12  0.000000D+00  0.000000D+00  0.000000D+00  0.000000D+00  0.000000D+00
     13  0.000000D+00  0.000000D+00  0.000000D+00  0.000000D+00  0.000000D+00
     14  0.000000D+00  0.000000D+00  0.000000D+00  0.000000D+00  0.000000D+00
     15  0.558978D-01  0.352037D+00  0.467822D+00  0.000000D+00  0.000000D+00
     16  0.915244D-01  0.480233D+00  0.743645D+00  0.000000D+00  0.000000D+00
     17  0.000000D+00  0.000000D+00  0.000000D+00  0.233928D+00  0.000000D+00
     18  0.000000D+00  0.000000D+00  0.000000D+00  0.000000D+00  0.233928D+00
     19  0.107663D+00  0.413554D+00  0.244844D+00  0.000000D+00  0.000000D+00
     20  0.440591D-04  0.367548D-01  0.688135D-01  0.000000D+00  0.000000D+00
     21  0.261181D-01  0.258473D+00  0.372692D+00  0.000000D+00  0.000000D+00
     22  0.832916D-01  0.435661D+00  0.631228D+00  0.000000D+00  0.000000D+00
     23  0.000000D+00  0.000000D+00  0.000000D+00  0.145987D+00  0.000000D+00
     24  0.000000D+00  0.000000D+00  0.000000D+00  0.000000D+00  0.145987D+00
     25 -0.511759D-01 -0.292846D+00 -0.185964D+00  0.000000D+00  0.000000D+00
     26  0.000000D+00  0.000000D+00  0.000000D+00  0.318837D+00  0.000000D+00
     27  0.000000D+00  0.000000D+00  0.000000D+00  0.000000D+00  0.318837D+00
     28 -0.161890D+00 -0.612796D+00 -0.544423D+00  0.000000D+00  0.000000D+00
     29  0.122428D+00  0.280568D+00  0.803806D-01  0.000000D+00  0.000000D+00
     30  0.000000D+00  0.000000D+00  0.000000D+00 -0.290190D+00  0.000000D+00
     31  0.000000D+00  0.000000D+00  0.000000D+00  0.000000D+00 -0.290190D+00
     32  0.000000D+00  0.000000D+00  0.000000D+00  0.000000D+00  0.000000D+00
     33  0.000000D+00  0.000000D+00  0.000000D+00  0.000000D+00  0.000000D+00
                6             7             8             9            10 
      6  0.100000D+01
      7  0.000000D+00  0.100000D+01
      8  0.000000D+00  0.000000D+00  0.100000D+01
      9  0.530759D+00  0.000000D+00  0.000000D+00  0.100000D+01
     10  0.000000D+00  0.000000D+00  0.000000D+00  0.000000D+00  0.100000D+01
     11  0.000000D+00  0.000000D+00  0.000000D+00  0.000000D+00  0.000000D+00
     12  0.000000D+00  0.000000D+00  0.000000D+00  0.000000D+00  0.000000D+00
     13  0.000000D+00  0.000000D+00  0.000000D+00  0.000000D+00  0.000000D+00
     14  0.000000D+00  0.000000D+00  0.000000D+00  0.000000D+00  0.000000D+00
     15 -0.404577D+00  0.000000D+00  0.000000D+00 -0.563589D+00  0.407606D+00
     16 -0.208629D+00  0.000000D+00  0.000000D+00 -0.527796D+00  0.770272D-01
     17  0.000000D+00  0.297348D+00  0.000000D+00  0.000000D+00  0.000000D+00
     18  0.000000D+00  0.000000D+00  0.297348D+00  0.000000D+00  0.000000D+00
     19 -0.411460D+00  0.000000D+00  0.000000D+00 -0.782048D-02  0.149879D+00
     20  0.705909D-01  0.000000D+00  0.000000D+00  0.113172D+00  0.154567D+00
     21  0.361630D+00  0.000000D+00  0.000000D+00  0.518165D+00  0.435715D+00
     22  0.327726D+00  0.000000D+00  0.000000D+00  0.639982D+00  0.205215D+00
     23  0.000000D+00  0.211118D+00  0.000000D+00  0.000000D+00  0.000000D+00
     24  0.000000D+00  0.000000D+00  0.211118D+00  0.000000D+00  0.000000D+00
     25 -0.348102D+00  0.000000D+00  0.000000D+00 -0.448246D-01 -0.244924D+00
     26  0.000000D+00  0.630188D+00  0.000000D+00  0.000000D+00  0.000000D+00
     27  0.000000D+00  0.000000D+00  0.630188D+00  0.000000D+00  0.000000D+00
     28 -0.161884D+00  0.000000D+00  0.000000D+00  0.100375D+00  0.104065D+00
     29  0.244052D+00  0.000000D+00  0.000000D+00 -0.698690D-01  0.120111D-01
     30  0.000000D+00 -0.151527D+00  0.000000D+00  0.000000D+00  0.000000D+00
     31  0.000000D+00  0.000000D+00 -0.151527D+00  0.000000D+00  0.000000D+00
     32  0.000000D+00  0.000000D+00  0.000000D+00  0.000000D+00  0.000000D+00
     33  0.000000D+00  0.000000D+00  0.000000D+00  0.000000D+00  0.000000D+00
               11            12            13            14            15 
     11  0.100000D+01
     12  0.000000D+00  0.100000D+01
     13  0.000000D+00  0.000000D+00  0.100000D+01
     14  0.000000D+00  0.000000D+00  0.000000D+00  0.100000D+01
     15  0.000000D+00  0.000000D+00  0.000000D+00  0.000000D+00  0.100000D+01
     16  0.000000D+00  0.000000D+00  0.000000D+00  0.000000D+00  0.684860D+00
     17 -0.463267D+00  0.000000D+00  0.000000D+00  0.000000D+00  0.000000D+00
     18  0.000000D+00 -0.463267D+00  0.000000D+00  0.000000D+00  0.000000D+00
     19  0.000000D+00  0.000000D+00  0.000000D+00  0.000000D+00  0.000000D+00
     20  0.000000D+00  0.000000D+00  0.000000D+00  0.000000D+00  0.167664D-03
     21  0.000000D+00  0.000000D+00  0.000000D+00  0.000000D+00  0.635756D-02
     22  0.000000D+00  0.000000D+00  0.000000D+00  0.000000D+00  0.577164D-01
     23  0.344146D+00  0.000000D+00  0.000000D+00  0.000000D+00  0.000000D+00
     24  0.000000D+00  0.344146D+00  0.000000D+00  0.000000D+00  0.000000D+00
     25  0.000000D+00  0.000000D+00  0.000000D+00  0.000000D+00 -0.106565D-01
     26  0.339016D+00  0.000000D+00  0.000000D+00  0.000000D+00  0.000000D+00
     27  0.000000D+00  0.339016D+00  0.000000D+00  0.000000D+00  0.000000D+00
     28  0.000000D+00  0.000000D+00  0.000000D+00  0.000000D+00 -0.161576D+00
     29  0.000000D+00  0.000000D+00  0.000000D+00  0.000000D+00  0.201255D-01
     30 -0.416516D+00  0.000000D+00  0.000000D+00  0.000000D+00  0.000000D+00
     31  0.000000D+00 -0.416516D+00  0.000000D+00  0.000000D+00  0.000000D+00
     32  0.000000D+00  0.000000D+00  0.199623D+00  0.000000D+00  0.000000D+00
     33  0.000000D+00  0.000000D+00  0.000000D+00  0.199623D+00  0.000000D+00
               16            17            18            19            20 
     16  0.100000D+01
     17  0.000000D+00  0.100000D+01
     18  0.000000D+00  0.000000D+00  0.100000D+01
     19  0.000000D+00  0.000000D+00  0.000000D+00  0.100000D+01
     20  0.144598D-01  0.000000D+00  0.000000D+00  0.318825D-04  0.100000D+01
     21  0.965527D-01  0.000000D+00  0.000000D+00  0.618794D-02  0.216415D+00
     22  0.233044D+00  0.000000D+00  0.000000D+00  0.649314D-01  0.181728D+00
     23  0.000000D+00  0.957456D-03  0.000000D+00  0.000000D+00  0.000000D+00
     24  0.000000D+00  0.000000D+00  0.957456D-03  0.000000D+00  0.000000D+00
     25 -0.712320D-01  0.000000D+00  0.000000D+00 -0.118670D-01  0.000000D+00
     26  0.000000D+00  0.342329D-01  0.000000D+00  0.000000D+00  0.000000D+00
     27  0.000000D+00  0.000000D+00  0.342329D-01  0.000000D+00  0.000000D+00
     28 -0.333624D+00  0.000000D+00  0.000000D+00 -0.167590D+00  0.000000D+00
     29  0.478526D-01  0.000000D+00  0.000000D+00  0.276083D-01  0.000000D+00
     30  0.000000D+00 -0.415842D-02  0.000000D+00  0.000000D+00  0.000000D+00
     31  0.000000D+00  0.000000D+00 -0.415842D-02  0.000000D+00  0.000000D+00
     32  0.000000D+00  0.000000D+00  0.000000D+00  0.000000D+00  0.000000D+00
     33  0.000000D+00  0.000000D+00  0.000000D+00  0.000000D+00  0.000000D+00
               21            22            23            24            25 
     21  0.100000D+01
     22  0.795233D+00  0.100000D+01
     23  0.000000D+00  0.000000D+00  0.100000D+01
     24  0.000000D+00  0.000000D+00  0.000000D+00  0.100000D+01
     25  0.000000D+00  0.000000D+00  0.000000D+00  0.000000D+00  0.100000D+01
     26  0.000000D+00  0.000000D+00  0.522157D+00  0.000000D+00  0.000000D+00
     27  0.000000D+00  0.000000D+00  0.000000D+00  0.522157D+00  0.000000D+00
     28  0.000000D+00  0.000000D+00  0.000000D+00  0.000000D+00  0.522157D+00
     29  0.000000D+00  0.000000D+00  0.000000D+00  0.000000D+00  0.000000D+00
     30  0.000000D+00  0.000000D+00  0.000000D+00  0.000000D+00  0.000000D+00
     31  0.000000D+00  0.000000D+00  0.000000D+00  0.000000D+00  0.000000D+00
     32  0.000000D+00  0.000000D+00  0.000000D+00  0.000000D+00  0.000000D+00
     33  0.000000D+00  0.000000D+00  0.000000D+00  0.000000D+00  0.000000D+00
               26            27            28            29            30 
     26  0.100000D+01
     27  0.000000D+00  0.100000D+01
     28  0.000000D+00  0.000000D+00  0.100000D+01
     29  0.000000D+00  0.000000D+00  0.000000D+00  0.100000D+01
     30  0.000000D+00  0.000000D+00  0.000000D+00  0.000000D+00  0.100000D+01
     31  0.000000D+00  0.000000D+00  0.000000D+00  0.000000D+00  0.000000D+00
     32  0.000000D+00  0.000000D+00  0.000000D+00  0.000000D+00  0.000000D+00
     33  0.000000D+00  0.000000D+00  0.000000D+00  0.000000D+00  0.000000D+00
               31            32            33 
     31  0.100000D+01
     32  0.000000D+00  0.100000D+01
     33  0.000000D+00  0.000000D+00  0.100000D+01
 *** Kinetic Energy *** 
                1             2             3             4             5 
      1  0.161698D+02
      2 -0.148953D+01  0.972956D+00
      3  0.829743D-01  0.288252D+00  0.239400D+00
      4  0.000000D+00  0.000000D+00  0.000000D+00  0.215838D+01
      5  0.000000D+00  0.000000D+00  0.000000D+00  0.000000D+00  0.215838D+01
      6  0.000000D+00  0.000000D+00  0.000000D+00  0.000000D+00  0.000000D+00
      7  0.000000D+00  0.000000D+00  0.000000D+00  0.321818D+00  0.000000D+00
      8  0.000000D+00  0.000000D+00  0.000000D+00  0.000000D+00  0.321818D+00
      9  0.000000D+00  0.000000D+00  0.000000D+00  0.000000D+00  0.000000D+00
     10  0.000000D+00  0.000000D+00  0.000000D+00  0.000000D+00  0.000000D+00
     11  0.000000D+00  0.000000D+00  0.000000D+00  0.000000D+00  0.000000D+00
     12  0.000000D+00  0.000000D+00  0.000000D+00  0.000000D+00  0.000000D+00
     13  0.000000D+00  0.000000D+00  0.000000D+00  0.000000D+00  0.000000D+00
     14  0.000000D+00  0.000000D+00  0.000000D+00  0.000000D+00  0.000000D+00
     15 -0.137127D-01  0.812319D-01  0.113353D+00  0.000000D+00  0.000000D+00
     16  0.220412D-01  0.103377D+00  0.125185D+00  0.000000D+00  0.000000D+00
     17  0.000000D+00  0.000000D+00  0.000000D+00  0.166955D+00  0.000000D+00
     18  0.000000D+00  0.000000D+00  0.000000D+00  0.000000D+00  0.166955D+00
     19 -0.952019D-02  0.341403D+00  0.125924D+00  0.000000D+00  0.000000D+00
     20 -0.965135D-03 -0.261915D-01  0.164742D-01  0.000000D+00  0.000000D+00
     21 -0.490301D-01  0.325587D-01  0.863597D-01  0.000000D+00  0.000000D+00
     22  0.176488D-01  0.105028D+00  0.125114D+00  0.000000D+00  0.000000D+00
     23  0.000000D+00  0.000000D+00  0.000000D+00  0.742930D-01  0.000000D+00
     24  0.000000D+00  0.000000D+00  0.000000D+00  0.000000D+00  0.742930D-01
     25  0.528383D-01 -0.205247D+00 -0.935622D-01  0.000000D+00  0.000000D+00
     26  0.000000D+00  0.000000D+00  0.000000D+00  0.178286D+00  0.000000D+00
     27  0.000000D+00  0.000000D+00  0.000000D+00  0.000000D+00  0.178286D+00
     28 -0.102593D+00 -0.331103D+00 -0.207578D+00  0.000000D+00  0.000000D+00
     29  0.380970D-01  0.389011D+00  0.616707D-01  0.000000D+00  0.000000D+00
     30  0.000000D+00  0.000000D+00  0.000000D+00 -0.353948D+00  0.000000D+00
     31  0.000000D+00  0.000000D+00  0.000000D+00  0.000000D+00 -0.353948D+00
     32  0.000000D+00  0.000000D+00  0.000000D+00  0.000000D+00  0.000000D+00
     33  0.000000D+00  0.000000D+00  0.000000D+00  0.000000D+00  0.000000D+00
                6             7             8             9            10 
      6  0.215838D+01
      7  0.000000D+00  0.379250D+00
      8  0.000000D+00  0.000000D+00  0.379250D+00
      9  0.321818D+00  0.000000D+00  0.000000D+00  0.379250D+00
     10  0.000000D+00  0.000000D+00  0.000000D+00  0.000000D+00  0.192500D+01
     11  0.000000D+00  0.000000D+00  0.000000D+00  0.000000D+00  0.000000D+00
     12  0.000000D+00  0.000000D+00  0.000000D+00  0.000000D+00  0.000000D+00
     13  0.000000D+00  0.000000D+00  0.000000D+00  0.000000D+00  0.000000D+00
     14  0.000000D+00  0.000000D+00  0.000000D+00  0.000000D+00  0.000000D+00
     15 -0.276806D+00  0.000000D+00  0.000000D+00 -0.265864D+00  0.527112D+00
     16 -0.880994D-01  0.000000D+00  0.000000D+00 -0.158713D+00  0.475590D-01
     17  0.000000D+00  0.148299D+00  0.000000D+00  0.000000D+00  0.000000D+00
     18  0.000000D+00  0.000000D+00  0.148299D+00  0.000000D+00  0.000000D+00
     19 -0.729264D+00  0.000000D+00  0.000000D+00 -0.805040D-01  0.637202D+00
     20 -0.430132D-03  0.000000D+00  0.000000D+00  0.604606D-01  0.175288D+00
     21  0.218434D+00  0.000000D+00  0.000000D+00  0.247545D+00  0.560983D+00
     22  0.185393D+00  0.000000D+00  0.000000D+00  0.240537D+00  0.180164D+00
     23  0.000000D+00  0.103193D+00  0.000000D+00  0.000000D+00  0.000000D+00
     24  0.000000D+00  0.000000D+00  0.103193D+00  0.000000D+00  0.000000D+00
     25 -0.504738D+00  0.000000D+00  0.000000D+00 -0.882246D-01 -0.761318D+00
     26  0.000000D+00  0.234687D+00  0.000000D+00  0.000000D+00  0.000000D+00
     27  0.000000D+00  0.000000D+00  0.234687D+00  0.000000D+00  0.000000D+00
     28 -0.246763D+00  0.000000D+00  0.000000D+00 -0.574947D-01  0.135050D-03
     29  0.729035D+00  0.000000D+00  0.000000D+00 -0.249423D-01  0.308857D+00
     30  0.000000D+00 -0.112418D+00  0.000000D+00  0.000000D+00  0.000000D+00
     31  0.000000D+00  0.000000D+00 -0.112418D+00  0.000000D+00  0.000000D+00
     32  0.000000D+00  0.000000D+00  0.000000D+00  0.000000D+00  0.000000D+00
     33  0.000000D+00  0.000000D+00  0.000000D+00  0.000000D+00  0.000000D+00
               11            12            13            14            15 
     11  0.192500D+01
     12  0.000000D+00  0.192500D+01
     13  0.000000D+00  0.000000D+00  0.192500D+01
     14  0.000000D+00  0.000000D+00  0.000000D+00  0.192500D+01
     15  0.000000D+00  0.000000D+00  0.000000D+00  0.000000D+00  0.969457D+00
     16  0.000000D+00  0.000000D+00  0.000000D+00  0.000000D+00  0.201234D+00
     17 -0.643998D+00  0.000000D+00  0.000000D+00  0.000000D+00  0.000000D+00
     18  0.000000D+00 -0.643998D+00  0.000000D+00  0.000000D+00  0.000000D+00
     19  0.000000D+00  0.000000D+00  0.000000D+00  0.000000D+00  0.000000D+00
     20  0.000000D+00  0.000000D+00  0.000000D+00  0.000000D+00 -0.787067D-03
     21  0.000000D+00  0.000000D+00  0.000000D+00  0.000000D+00 -0.119715D-01
     22  0.000000D+00  0.000000D+00  0.000000D+00  0.000000D+00 -0.209391D-01
     23  0.438986D+00  0.000000D+00  0.000000D+00  0.000000D+00  0.000000D+00
     24  0.000000D+00  0.438986D+00  0.000000D+00  0.000000D+00  0.000000D+00
     25  0.000000D+00  0.000000D+00  0.000000D+00  0.000000D+00  0.161359D-01
     26  0.293256D+00  0.000000D+00  0.000000D+00  0.000000D+00  0.000000D+00
     27  0.000000D+00  0.293256D+00  0.000000D+00  0.000000D+00  0.000000D+00
     28  0.000000D+00  0.000000D+00  0.000000D+00  0.000000D+00  0.785110D-02
     29  0.000000D+00  0.000000D+00  0.000000D+00  0.000000D+00 -0.189043D-01
     30 -0.940877D+00  0.000000D+00  0.000000D+00  0.000000D+00  0.000000D+00
     31  0.000000D+00 -0.940877D+00  0.000000D+00  0.000000D+00  0.000000D+00
     32  0.000000D+00  0.000000D+00  0.256798D+00  0.000000D+00  0.000000D+00
     33  0.000000D+00  0.000000D+00  0.000000D+00  0.256798D+00  0.000000D+00
               16            17            18            19            20 
     16  0.183000D+00
     17  0.000000D+00  0.181750D+01
     18  0.000000D+00  0.000000D+00  0.181750D+01
     19  0.000000D+00  0.000000D+00  0.000000D+00  0.181750D+01
     20 -0.206582D-02  0.000000D+00  0.000000D+00 -0.346229D-03  0.223182D+02
     21 -0.657690D-02  0.000000D+00  0.000000D+00 -0.179758D-01 -0.206631D+01
     22  0.414471D-02  0.000000D+00  0.000000D+00 -0.114325D-01  0.118179D+00
     23  0.000000D+00 -0.307742D-02  0.000000D+00  0.000000D+00  0.000000D+00
     24  0.000000D+00  0.000000D+00 -0.307742D-02  0.000000D+00  0.000000D+00
     25 -0.950803D-02  0.000000D+00  0.000000D+00  0.286119D-01  0.000000D+00
     26  0.000000D+00 -0.515079D-02  0.000000D+00  0.000000D+00  0.000000D+00
     27  0.000000D+00  0.000000D+00 -0.515079D-02  0.000000D+00  0.000000D+00
     28 -0.588391D-01  0.000000D+00  0.000000D+00 -0.425988D-01  0.000000D+00
     29  0.166357D-01  0.000000D+00  0.000000D+00 -0.440910D-01  0.000000D+00
     30  0.000000D+00  0.103969D-01  0.000000D+00  0.000000D+00  0.000000D+00
     31  0.000000D+00  0.000000D+00  0.103969D-01  0.000000D+00  0.000000D+00
     32  0.000000D+00  0.000000D+00  0.000000D+00  0.000000D+00  0.000000D+00
     33  0.000000D+00  0.000000D+00  0.000000D+00  0.000000D+00  0.000000D+00
               21            22            23            24            25 
     21  0.138701D+01
     22  0.405200D+00  0.337200D+00
     23  0.000000D+00  0.000000D+00  0.319841D+01
     24  0.000000D+00  0.000000D+00  0.000000D+00  0.319841D+01
     25  0.000000D+00  0.000000D+00  0.000000D+00  0.000000D+00  0.319841D+01
     26  0.000000D+00  0.000000D+00  0.457572D+00  0.000000D+00  0.000000D+00
     27  0.000000D+00  0.000000D+00  0.000000D+00  0.457572D+00  0.000000D+00
     28  0.000000D+00  0.000000D+00  0.000000D+00  0.000000D+00  0.457572D+00
     29  0.000000D+00  0.000000D+00  0.000000D+00  0.000000D+00  0.000000D+00
     30  0.000000D+00  0.000000D+00  0.000000D+00  0.000000D+00  0.000000D+00
     31  0.000000D+00  0.000000D+00  0.000000D+00  0.000000D+00  0.000000D+00
     32  0.000000D+00  0.000000D+00  0.000000D+00  0.000000D+00  0.000000D+00
     33  0.000000D+00  0.000000D+00  0.000000D+00  0.000000D+00  0.000000D+00
               26            27            28            29            30 
     26  0.546250D+00
     27  0.000000D+00  0.546250D+00
     28  0.000000D+00  0.000000D+00  0.546250D+00
     29  0.000000D+00  0.000000D+00  0.000000D+00  0.285950D+01
     30  0.000000D+00  0.000000D+00  0.000000D+00  0.000000D+00  0.285950D+01
     31  0.000000D+00  0.000000D+00  0.000000D+00  0.000000D+00  0.000000D+00
     32  0.000000D+00  0.000000D+00  0.000000D+00  0.000000D+00  0.000000D+00
     33  0.000000D+00  0.000000D+00  0.000000D+00  0.000000D+00  0.000000D+00
               31            32            33 
     31  0.285950D+01
     32  0.000000D+00  0.285950D+01
     33  0.000000D+00  0.000000D+00  0.285950D+01
 Entering OneElI...
 OneElI was handed  6710884817 working-precision words.
 Calculate potential energy integrals
    NBasis =  33  MinDer = 0  MaxDer = 0
 Requested accuracy = 0.1000D-12
 ShPair: Thresh= 1.00D-13 NBox=     0 BxSize= 0.00D+00 RnKept= 4.19D+00
         NSMCal=                  120 NSMKep=                 120
 PrmmSu-InSpLW:  IPartL=    0 NPrtUS=    5 NPrtUL=    1 DoSpLW=F IThBeg=    0 IThEnd=    4 NThAct=    5.
 PrSmSu:  IncTry=   512 NBBP=            360 NTPThr=   100 NPartT=    5 Incr=           1 LDynOK=F GPUOK=F.
 PrsmSu:  NPrtUS=   5 ThrOK=T IAlg=1 LenDen=           0 ISkipM=0 DoSpLW=F IThBeg=    0 IThEnd=    4.
 Prism:   IPart=     0 DynPar=F LinDyn=F Incr=           1.
 PRISM was handed  1342165663 working-precision words and   120 shell-pairs
 PRISM was handed  1342165663 working-precision words and   120 shell-pairs
 PRISM was handed  1342165663 working-precision words and   120 shell-pairs
 PRISM was handed  1342165663 working-precision words and   120 shell-pairs
 PRISM was handed  1342165663 working-precision words and   120 shell-pairs
 IPart=  4 NShTot=          39 NBatch=          13 AvBLen=         3.0
 PrsmSu-ThDecC:  IPartSL=    4    0 NPrtUSL=    5    1 IThBeg=    0 IThEnd=    4 CPU=   -1 GPU=   -1 NThAct=    5.
 IPart=  1 NShTot=          81 NBatch=          27 AvBLen=         3.0
 PrsmSu-ThDecC:  IPartSL=    1    0 NPrtUSL=    5    1 IThBeg=    0 IThEnd=    4 CPU=   -1 GPU=   -1 NThAct=    4.
 IPart=  0 NShTot=         126 NBatch=          42 AvBLen=         3.0
 PrsmSu-ThDecC:  IPartSL=    0    0 NPrtUSL=    5    1 IThBeg=    0 IThEnd=    4 CPU=   -1 GPU=   -1 NThAct=    3.
 IPart=  2 NShTot=          63 NBatch=          21 AvBLen=         3.0
 PrsmSu-ThDecC:  IPartSL=    2    0 NPrtUSL=    5    1 IThBeg=    0 IThEnd=    4 CPU=   -1 GPU=   -1 NThAct=    2.
 IPart=  3 NShTot=          51 NBatch=          17 AvBLen=         3.0
 PrsmSu-ThDecC:  IPartSL=    3    0 NPrtUSL=    5    1 IThBeg=    0 IThEnd=    4 CPU=   -1 GPU=   -1 NThAct=    1.
 PrSmSu:  NxtVal=              6.
 ***** Potential Energy ***** 
                1             2             3             4             5 
      1  0.373443D+02
      2  0.255422D+01  0.889749D+01
      3  0.371750D+01  0.655152D+01  0.678622D+01
      4  0.000000D+00  0.000000D+00  0.000000D+00  0.921462D+01
      5  0.000000D+00  0.000000D+00  0.000000D+00  0.000000D+00  0.921462D+01
      6  0.143869D+00  0.101292D+01  0.951003D+00  0.000000D+00  0.000000D+00
      7  0.000000D+00  0.000000D+00  0.000000D+00  0.366366D+01  0.000000D+00
      8  0.000000D+00  0.000000D+00  0.000000D+00  0.000000D+00  0.366366D+01
      9  0.222271D-01  0.645399D+00  0.111194D+01  0.000000D+00  0.000000D+00
     10  0.124445D-01  0.576000D+00  0.748106D+00  0.000000D+00  0.000000D+00
     11  0.000000D+00  0.000000D+00  0.000000D+00  0.619896D+00  0.000000D+00
     12  0.000000D+00  0.000000D+00  0.000000D+00  0.000000D+00  0.619896D+00
     13  0.000000D+00  0.000000D+00  0.000000D+00  0.000000D+00  0.000000D+00
     14  0.000000D+00  0.000000D+00  0.000000D+00  0.000000D+00  0.000000D+00
     15  0.110387D+01  0.239367D+01  0.255946D+01  0.000000D+00  0.000000D+00
     16  0.186736D+01  0.358203D+01  0.416357D+01  0.000000D+00  0.000000D+00
     17  0.000000D+00  0.000000D+00  0.000000D+00  0.146119D+01  0.000000D+00
     18  0.000000D+00  0.000000D+00  0.000000D+00  0.000000D+00  0.146119D+01
     19  0.213223D+01  0.326488D+01  0.216944D+01  0.000000D+00  0.000000D+00
     20  0.573873D-03  0.943766D+00  0.181909D+01  0.000000D+00  0.000000D+00
     21  0.496011D+00  0.271617D+01  0.367392D+01  0.000000D+00  0.000000D+00
     22  0.171763D+01  0.398544D+01  0.499071D+01  0.000000D+00  0.000000D+00
     23  0.000000D+00  0.000000D+00  0.000000D+00  0.135056D+01  0.000000D+00
     24  0.000000D+00  0.000000D+00  0.000000D+00  0.000000D+00  0.135056D+01
     25 -0.100823D+01 -0.312568D+01 -0.205849D+01  0.000000D+00  0.000000D+00
     26  0.000000D+00  0.000000D+00  0.000000D+00  0.238133D+01  0.000000D+00
     27  0.000000D+00  0.000000D+00  0.000000D+00  0.000000D+00  0.238133D+01
     28 -0.338938D+01 -0.533027D+01 -0.428024D+01  0.000000D+00  0.000000D+00
     29  0.255250D+01  0.314176D+01  0.134885D+01  0.000000D+00  0.000000D+00
     30  0.000000D+00  0.000000D+00  0.000000D+00 -0.260690D+01  0.000000D+00
     31  0.000000D+00  0.000000D+00  0.000000D+00  0.000000D+00 -0.260690D+01
     32  0.000000D+00  0.000000D+00  0.000000D+00  0.000000D+00  0.000000D+00
     33  0.000000D+00  0.000000D+00  0.000000D+00  0.000000D+00  0.000000D+00
                6             7             8             9            10 
      6  0.987002D+01
      7  0.000000D+00  0.475854D+01
      8  0.000000D+00  0.000000D+00  0.475854D+01
      9  0.420952D+01  0.000000D+00  0.000000D+00  0.569996D+01
     10  0.128027D+01  0.000000D+00  0.000000D+00  0.131341D+01  0.786435D+01
     11  0.000000D+00  0.555975D+00  0.000000D+00  0.000000D+00  0.000000D+00
     12  0.000000D+00  0.000000D+00  0.555975D+00  0.000000D+00  0.000000D+00
     13  0.000000D+00  0.000000D+00  0.000000D+00  0.000000D+00  0.000000D+00
     14  0.000000D+00  0.000000D+00  0.000000D+00  0.000000D+00  0.000000D+00
     15 -0.243644D+01  0.000000D+00  0.000000D+00 -0.248706D+01  0.201099D+01
     16 -0.945312D+00  0.000000D+00  0.000000D+00 -0.170216D+01  0.466046D+00
     17  0.000000D+00  0.138101D+01  0.000000D+00  0.000000D+00  0.000000D+00
     18  0.000000D+00  0.000000D+00  0.138101D+01  0.000000D+00  0.000000D+00
     19 -0.314687D+01  0.000000D+00  0.000000D+00 -0.685259D+00  0.112892D+01
     20  0.185767D+01  0.000000D+00  0.000000D+00  0.301729D+01  0.422640D+01
     21  0.392785D+01  0.000000D+00  0.000000D+00  0.500818D+01  0.503264D+01
     22  0.340553D+01  0.000000D+00  0.000000D+00  0.499394D+01  0.288111D+01
     23  0.000000D+00  0.173885D+01  0.000000D+00  0.000000D+00  0.000000D+00
     24  0.000000D+00  0.000000D+00  0.173885D+01  0.000000D+00  0.000000D+00
     25 -0.390034D+01  0.000000D+00  0.000000D+00 -0.831264D+00 -0.312695D+01
     26  0.000000D+00  0.345367D+01  0.000000D+00  0.000000D+00  0.000000D+00
     27  0.000000D+00  0.000000D+00  0.345367D+01  0.000000D+00  0.000000D+00
     28 -0.195189D+01  0.000000D+00  0.000000D+00  0.150816D-01  0.134294D+00
     29  0.303418D+01  0.000000D+00  0.000000D+00 -0.170368D+00  0.600604D+00
     30  0.000000D+00 -0.127557D+01  0.000000D+00  0.000000D+00  0.000000D+00
     31  0.000000D+00  0.000000D+00 -0.127557D+01  0.000000D+00  0.000000D+00
     32  0.000000D+00  0.000000D+00  0.000000D+00  0.000000D+00  0.000000D+00
     33  0.000000D+00  0.000000D+00  0.000000D+00  0.000000D+00  0.000000D+00
               11            12            13            14            15 
     11  0.698199D+01
     12  0.000000D+00  0.698199D+01
     13  0.000000D+00  0.000000D+00  0.648269D+01
     14  0.000000D+00  0.000000D+00  0.000000D+00  0.648269D+01
     15  0.000000D+00  0.000000D+00  0.000000D+00  0.000000D+00  0.462471D+01
     16  0.000000D+00  0.000000D+00  0.000000D+00  0.000000D+00  0.312026D+01
     17 -0.238853D+01  0.000000D+00  0.000000D+00  0.000000D+00  0.000000D+00
     18  0.000000D+00 -0.238853D+01  0.000000D+00  0.000000D+00  0.000000D+00
     19  0.000000D+00  0.000000D+00  0.000000D+00  0.000000D+00  0.115556D+01
     20  0.000000D+00  0.000000D+00  0.000000D+00  0.000000D+00  0.374901D-02
     21  0.000000D+00  0.000000D+00  0.000000D+00  0.000000D+00  0.685169D-01
     22  0.000000D+00  0.000000D+00  0.000000D+00  0.000000D+00  0.432986D+00
     23  0.322422D+01  0.000000D+00  0.000000D+00  0.000000D+00  0.000000D+00
     24  0.000000D+00  0.322422D+01  0.000000D+00  0.000000D+00  0.000000D+00
     25  0.000000D+00  0.000000D+00  0.000000D+00  0.000000D+00 -0.117926D+00
     26  0.257597D+01  0.000000D+00  0.000000D+00  0.000000D+00  0.000000D+00
     27  0.000000D+00  0.257597D+01  0.000000D+00  0.000000D+00  0.000000D+00
     28  0.000000D+00  0.000000D+00  0.000000D+00  0.000000D+00 -0.110308D+01
     29  0.000000D+00  0.000000D+00  0.000000D+00  0.000000D+00  0.234652D+00
     30 -0.363116D+01  0.000000D+00  0.000000D+00  0.000000D+00  0.000000D+00
     31  0.000000D+00 -0.363116D+01  0.000000D+00  0.000000D+00  0.000000D+00
     32  0.000000D+00  0.000000D+00  0.150347D+01  0.000000D+00  0.000000D+00
     33  0.000000D+00  0.000000D+00  0.000000D+00  0.150347D+01  0.000000D+00
               16            17            18            19            20 
     16  0.416451D+01
     17  0.000000D+00  0.435642D+01
     18  0.000000D+00  0.000000D+00  0.435642D+01
     19  0.103763D+01  0.000000D+00  0.000000D+00  0.517621D+01
     20  0.377552D+00  0.000000D+00  0.000000D+00  0.574576D-03  0.495288D+02
     21  0.947951D+00  0.000000D+00  0.000000D+00  0.723283D-01  0.342698D+01
     22  0.174380D+01  0.000000D+00  0.000000D+00  0.568863D+00  0.486252D+01
     23  0.000000D+00  0.838418D-02  0.000000D+00  0.000000D+00  0.000000D+00
     24  0.000000D+00  0.000000D+00  0.838418D-02  0.000000D+00  0.000000D+00
     25 -0.749721D+00  0.000000D+00  0.000000D+00 -0.141226D+00 -0.109061D+00
     26  0.000000D+00  0.195212D+00  0.000000D+00  0.000000D+00  0.000000D+00
     27  0.000000D+00  0.000000D+00  0.195212D+00  0.000000D+00  0.000000D+00
     28 -0.232323D+01  0.000000D+00  0.000000D+00 -0.140463D+01 -0.169438D-01
     29  0.647545D+00  0.000000D+00  0.000000D+00  0.338332D+00  0.839947D-02
     30  0.000000D+00 -0.361097D-01  0.000000D+00  0.000000D+00  0.000000D+00
     31  0.000000D+00  0.000000D+00 -0.361097D-01  0.000000D+00  0.000000D+00
     32  0.000000D+00  0.000000D+00  0.000000D+00  0.000000D+00  0.000000D+00
     33  0.000000D+00  0.000000D+00  0.000000D+00  0.000000D+00  0.000000D+00
               21            22            23            24            25 
     21  0.107071D+02
     22  0.774175D+01  0.795481D+01
     23  0.000000D+00  0.000000D+00  0.114625D+02
     24  0.000000D+00  0.000000D+00  0.000000D+00  0.114625D+02
     25 -0.729722D+00 -0.704737D+00  0.000000D+00  0.000000D+00  0.118616D+02
     26  0.000000D+00  0.000000D+00  0.434255D+01  0.000000D+00  0.000000D+00
     27  0.000000D+00  0.000000D+00  0.000000D+00  0.434255D+01  0.000000D+00
     28 -0.499267D+00 -0.101802D+01  0.000000D+00  0.000000D+00  0.472502D+01
     29  0.366491D+00  0.527017D+00  0.000000D+00  0.000000D+00 -0.877596D+00
     30  0.000000D+00  0.000000D+00 -0.489293D+00  0.000000D+00  0.000000D+00
     31  0.000000D+00  0.000000D+00  0.000000D+00 -0.489293D+00  0.000000D+00
     32  0.000000D+00  0.000000D+00  0.000000D+00  0.000000D+00  0.000000D+00
     33  0.000000D+00  0.000000D+00  0.000000D+00  0.000000D+00  0.000000D+00
               26            27            28            29            30 
     26  0.562580D+01
     27  0.000000D+00  0.562580D+01
     28  0.000000D+00  0.000000D+00  0.656794D+01
     29  0.000000D+00  0.000000D+00 -0.101475D+01  0.869398D+01
     30 -0.467172D+00  0.000000D+00  0.000000D+00  0.000000D+00  0.819408D+01
     31  0.000000D+00 -0.467172D+00  0.000000D+00  0.000000D+00  0.000000D+00
     32  0.000000D+00  0.000000D+00  0.000000D+00  0.000000D+00  0.000000D+00
     33  0.000000D+00  0.000000D+00  0.000000D+00  0.000000D+00  0.000000D+00
               31            32            33 
     31  0.819408D+01
     32  0.000000D+00  0.782833D+01
     33  0.000000D+00  0.000000D+00  0.782833D+01
 ****** Core Hamiltonian ****** 
                1             2             3             4             5 
      1 -0.211745D+02
      2 -0.404375D+01 -0.792453D+01
      3 -0.363453D+01 -0.626327D+01 -0.654682D+01
      4  0.000000D+00  0.000000D+00  0.000000D+00 -0.705625D+01
      5  0.000000D+00  0.000000D+00  0.000000D+00  0.000000D+00 -0.705625D+01
      6 -0.143869D+00 -0.101292D+01 -0.951003D+00  0.000000D+00  0.000000D+00
      7  0.000000D+00  0.000000D+00  0.000000D+00 -0.334184D+01  0.000000D+00
      8  0.000000D+00  0.000000D+00  0.000000D+00  0.000000D+00 -0.334184D+01
      9 -0.222271D-01 -0.645399D+00 -0.111194D+01  0.000000D+00  0.000000D+00
     10 -0.124445D-01 -0.576000D+00 -0.748106D+00  0.000000D+00  0.000000D+00
     11  0.000000D+00  0.000000D+00  0.000000D+00 -0.619896D+00  0.000000D+00
     12  0.000000D+00  0.000000D+00  0.000000D+00  0.000000D+00 -0.619896D+00
     13  0.000000D+00  0.000000D+00  0.000000D+00  0.000000D+00  0.000000D+00
     14  0.000000D+00  0.000000D+00  0.000000D+00  0.000000D+00  0.000000D+00
     15 -0.111758D+01 -0.231244D+01 -0.244611D+01  0.000000D+00  0.000000D+00
     16 -0.184532D+01 -0.347866D+01 -0.403839D+01  0.000000D+00  0.000000D+00
     17  0.000000D+00  0.000000D+00  0.000000D+00 -0.129424D+01  0.000000D+00
     18  0.000000D+00  0.000000D+00  0.000000D+00  0.000000D+00 -0.129424D+01
     19 -0.214175D+01 -0.292348D+01 -0.204352D+01  0.000000D+00  0.000000D+00
     20 -0.153901D-02 -0.969958D+00 -0.180261D+01  0.000000D+00  0.000000D+00
     21 -0.545041D+00 -0.268361D+01 -0.358756D+01  0.000000D+00  0.000000D+00
     22 -0.169998D+01 -0.388042D+01 -0.486560D+01  0.000000D+00  0.000000D+00
     23  0.000000D+00  0.000000D+00  0.000000D+00 -0.127627D+01  0.000000D+00
     24  0.000000D+00  0.000000D+00  0.000000D+00  0.000000D+00 -0.127627D+01
     25  0.106106D+01  0.292044D+01  0.196493D+01  0.000000D+00  0.000000D+00
     26  0.000000D+00  0.000000D+00  0.000000D+00 -0.220304D+01  0.000000D+00
     27  0.000000D+00  0.000000D+00  0.000000D+00  0.000000D+00 -0.220304D+01
     28  0.328679D+01  0.499916D+01  0.407266D+01  0.000000D+00  0.000000D+00
     29 -0.251440D+01 -0.275275D+01 -0.128718D+01  0.000000D+00  0.000000D+00
     30  0.000000D+00  0.000000D+00  0.000000D+00  0.225295D+01  0.000000D+00
     31  0.000000D+00  0.000000D+00  0.000000D+00  0.000000D+00  0.225295D+01
     32  0.000000D+00  0.000000D+00  0.000000D+00  0.000000D+00  0.000000D+00
     33  0.000000D+00  0.000000D+00  0.000000D+00  0.000000D+00  0.000000D+00
                6             7             8             9            10 
      6 -0.771164D+01
      7  0.000000D+00 -0.437929D+01
      8  0.000000D+00  0.000000D+00 -0.437929D+01
      9 -0.388771D+01  0.000000D+00  0.000000D+00 -0.532071D+01
     10 -0.128027D+01  0.000000D+00  0.000000D+00 -0.131341D+01 -0.593935D+01
     11  0.000000D+00 -0.555975D+00  0.000000D+00  0.000000D+00  0.000000D+00
     12  0.000000D+00  0.000000D+00 -0.555975D+00  0.000000D+00  0.000000D+00
     13  0.000000D+00  0.000000D+00  0.000000D+00  0.000000D+00  0.000000D+00
     14  0.000000D+00  0.000000D+00  0.000000D+00  0.000000D+00  0.000000D+00
     15  0.215963D+01  0.000000D+00  0.000000D+00  0.222119D+01 -0.148388D+01
     16  0.857213D+00  0.000000D+00  0.000000D+00  0.154345D+01 -0.418487D+00
     17  0.000000D+00 -0.123271D+01  0.000000D+00  0.000000D+00  0.000000D+00
     18  0.000000D+00  0.000000D+00 -0.123271D+01  0.000000D+00  0.000000D+00
     19  0.241760D+01  0.000000D+00  0.000000D+00  0.604755D+00 -0.491719D+00
     20 -0.185810D+01  0.000000D+00  0.000000D+00 -0.295683D+01 -0.405111D+01
     21 -0.370942D+01  0.000000D+00  0.000000D+00 -0.476064D+01 -0.447165D+01
     22 -0.322014D+01  0.000000D+00  0.000000D+00 -0.475341D+01 -0.270095D+01
     23  0.000000D+00 -0.163566D+01  0.000000D+00  0.000000D+00  0.000000D+00
     24  0.000000D+00  0.000000D+00 -0.163566D+01  0.000000D+00  0.000000D+00
     25  0.339560D+01  0.000000D+00  0.000000D+00  0.743040D+00  0.236563D+01
     26  0.000000D+00 -0.321899D+01  0.000000D+00  0.000000D+00  0.000000D+00
     27  0.000000D+00  0.000000D+00 -0.321899D+01  0.000000D+00  0.000000D+00
     28  0.170512D+01  0.000000D+00  0.000000D+00 -0.725763D-01 -0.134159D+00
     29 -0.230515D+01  0.000000D+00  0.000000D+00  0.145426D+00 -0.291748D+00
     30  0.000000D+00  0.116315D+01  0.000000D+00  0.000000D+00  0.000000D+00
     31  0.000000D+00  0.000000D+00  0.116315D+01  0.000000D+00  0.000000D+00
     32  0.000000D+00  0.000000D+00  0.000000D+00  0.000000D+00  0.000000D+00
     33  0.000000D+00  0.000000D+00  0.000000D+00  0.000000D+00  0.000000D+00
               11            12            13            14            15 
     11 -0.505699D+01
     12  0.000000D+00 -0.505699D+01
     13  0.000000D+00  0.000000D+00 -0.455769D+01
     14  0.000000D+00  0.000000D+00  0.000000D+00 -0.455769D+01
     15  0.000000D+00  0.000000D+00  0.000000D+00  0.000000D+00 -0.365525D+01
     16  0.000000D+00  0.000000D+00  0.000000D+00  0.000000D+00 -0.291902D+01
     17  0.174453D+01  0.000000D+00  0.000000D+00  0.000000D+00  0.000000D+00
     18  0.000000D+00  0.174453D+01  0.000000D+00  0.000000D+00  0.000000D+00
     19  0.000000D+00  0.000000D+00  0.000000D+00  0.000000D+00 -0.115556D+01
     20  0.000000D+00  0.000000D+00  0.000000D+00  0.000000D+00 -0.453608D-02
     21  0.000000D+00  0.000000D+00  0.000000D+00  0.000000D+00 -0.804883D-01
     22  0.000000D+00  0.000000D+00  0.000000D+00  0.000000D+00 -0.453925D+00
     23 -0.278523D+01  0.000000D+00  0.000000D+00  0.000000D+00  0.000000D+00
     24  0.000000D+00 -0.278523D+01  0.000000D+00  0.000000D+00  0.000000D+00
     25  0.000000D+00  0.000000D+00  0.000000D+00  0.000000D+00  0.134061D+00
     26 -0.228271D+01  0.000000D+00  0.000000D+00  0.000000D+00  0.000000D+00
     27  0.000000D+00 -0.228271D+01  0.000000D+00  0.000000D+00  0.000000D+00
     28  0.000000D+00  0.000000D+00  0.000000D+00  0.000000D+00  0.111093D+01
     29  0.000000D+00  0.000000D+00  0.000000D+00  0.000000D+00 -0.253556D+00
     30  0.269028D+01  0.000000D+00  0.000000D+00  0.000000D+00  0.000000D+00
     31  0.000000D+00  0.269028D+01  0.000000D+00  0.000000D+00  0.000000D+00
     32  0.000000D+00  0.000000D+00 -0.124668D+01  0.000000D+00  0.000000D+00
     33  0.000000D+00  0.000000D+00  0.000000D+00 -0.124668D+01  0.000000D+00
               16            17            18            19            20 
     16 -0.398151D+01
     17  0.000000D+00 -0.253892D+01
     18  0.000000D+00  0.000000D+00 -0.253892D+01
     19 -0.103763D+01  0.000000D+00  0.000000D+00 -0.335871D+01
[...]
 Enter PrismC:  IPart=  4 JobTyp=20 DoJE=F Cont=F.
 PrismC:  IPart=     4 DynPar=F LinDyn=F Incr=          14 UseFst=F UseS4=T ISplat=2.
 Enter PrismC:  IPart=  3 JobTyp=20 DoJE=F Cont=F.
 PrismC was handed  1342099147 working-precision words and   120 shell-pairs
 Enter PrismC:  IPart=  2 JobTyp=20 DoJE=F Cont=F.
 PrismC:  IPart=     3 DynPar=F LinDyn=F Incr=          14 UseFst=F UseS4=T ISplat=2.
 PrismC was handed  1342099147 working-precision words and   120 shell-pairs
 PrismC:  IPart=     2 DynPar=F LinDyn=F Incr=          14 UseFst=F UseS4=T ISplat=2.
 PrismC was handed  1342099147 working-precision words and   120 shell-pairs
 CoulSu:  NxtVal=             71 LenVP=     1342099148 MinMC=       8.
 FoFCou EC=  27.9338541114     ENF=  27.9338541114    
 FoF2E:  FMaxA= 1.19D+01S
 ChkPGP:  NMat=1 NMatS=1 NMatT=0 NMtPBC=     1
 EA=  55.8677082228      0.00000000000      0.00000000000      0.00000000000    
 EB=  55.8677082228      0.00000000000      0.00000000000      0.00000000000    
 ETotA=  55.8677082228     ETotB=  55.8677082228    
 1/2 <PG(P)>=          55.867708222763
 IMat=  1 1/2 <PG(P)>=          55.867708222763
 IMat=  1 EOne=-0.167222505914D+03 ETwo= 0.558677082228D+02 Energy=-0.111354797691D+03
 FoFCou: FMM=F IPFlag=           0 FMFlag=           0 FMFlg1=           0
         NFxFlg=           0 DoJE=F BraDBF=F KetDBF=F FulRan=T
         wScrn=  0.000000 ICntrl=       500 IOpCl=  1 I1Cent=           0 NGrid=           0
         NMat0=    1 NMatS0=      1 NMatT0=    0 NMatD0=    1 NMtDS0=    0 NMtDT0=    0
 Symmetry not used in FoFCou.
 FoFCou:  KetSym=F NOpSet=  0 NOpAb=0 NOp=  1.
 FoFCou:  CnvScl= 1.00D+00 Thresh= 1.00D-08 IAcrcy=      10.
 ShPair: Thresh= 1.00D-08 NBox=     0 BxSize= 0.00D+00 RnKept= 4.19D+00
         NSMCal=                  300 NSMKep=                 292
 PrismS was handed  6710514106 working-precision words and   292 shell-pairs
 FoFCou: LinMIO=F DoNuc=F BraDBF=F KetDBF=F HaveP=T PDBF=F HaveZ=F HaveW=F
         NIJTC =       6 NIJTAt=       0 NIJTCD=       0 NIJTT =       6
         IJTBeg=       1 IJTEnd=       6 KLTBeg=       1 KLTEnd=       6
         IPTBeg=       1 IPTEnd=       6 IPTBCv=       1 IPTECv=       6
         IZTBeg=       1 IZTEnd=       6 IZTBCv=       1 IZTECv=       6
         IWTBeg=       7 IWTEnd=       6 IWTBCv=       7 IWTECv=       6
         INTBeg=       1 INTEnd=       0 IFTBCv=       1 IFTECv=       6
 NCel replicated for PrismC:     1
 CoulSu-InSpLW:  IPartL=    0 NPrtUS=    5 NPrtUL=    1 DoSpLW=F IThBeg=    0 IThEnd=    4 NThAct=    5.
 CoulSu:  IncTry=  1024 NBBP=          42778 NTPThr=   100 NPartT=    5 Incr=          85 LDynOK=F GPUOK=F.
 CoulSu:  NPrtUS=   5 ThrOK=T IAlg=1 LenDen=        1830 LWGrdD=           0 DoCopy=T ISkipM=0
          DoSpLW=F IThBeg=    0 IThEnd=    4.
 CoulSu:  IPart=    0 IPartR=    0 CPU=   -1 GPU=   -1.
 CoulSu:  IPart=    2 IPartR=    2 CPU=   -1 GPU=   -1.
 Enter PrismC:  IPart=  0 JobTyp=20 DoJE=F Cont=F.
 CoulSu:  IPart=    3 IPartR=    3 CPU=   -1 GPU=   -1.
 CoulSu:  IPart=    4 IPartR=    4 CPU=   -1 GPU=   -1.
 PrismC:  IPart=     0 DynPar=F LinDyn=F Incr=          85 UseFst=F UseS4=T ISplat=2.
 PrismC was handed  1342088590 working-precision words and   292 shell-pairs
 CoulSu:  IPart=    1 IPartR=    1 CPU=   -1 GPU=   -1.
 Enter PrismC:  IPart=  2 JobTyp=20 DoJE=F Cont=F.
 Enter PrismC:  IPart=  3 JobTyp=20 DoJE=F Cont=F.
 Enter PrismC:  IPart=  4 JobTyp=20 DoJE=F Cont=F.
 Enter PrismC:  IPart=  1 JobTyp=20 DoJE=F Cont=F.
 PrismC:  IPart=     2 DynPar=F LinDyn=F Incr=          85 UseFst=F UseS4=T ISplat=2.
 PrismC:  IPart=     1 DynPar=F LinDyn=F Incr=          85 UseFst=F UseS4=T ISplat=2.
 PrismC:  IPart=     4 DynPar=F LinDyn=F Incr=          85 UseFst=F UseS4=T ISplat=2.
 PrismC was handed  1342088590 working-precision words and   292 shell-pairs
 PrismC:  IPart=     3 DynPar=F LinDyn=F Incr=          85 UseFst=F UseS4=T ISplat=2.
 PrismC was handed  1342088590 working-precision words and   292 shell-pairs
 PrismC was handed  1342088590 working-precision words and   292 shell-pairs
 PrismC was handed  1342088590 working-precision words and   292 shell-pairs
 IPart=  0 NShTot=        3911 NShNF=        3911 NShFF=           0 MinMC=       8
           NShCPU=        3911 NBCPU=         242 AvBCPU=        16.2
           NShGPU=           0 NBGPU=           0 AvBGPU=         0.0
 CoulSu-ThDecC:  IPartSL=    0    0 NPrtUSL=    5    1 IThBeg=    0 IThEnd=    4 CPU=   -1 GPU=   -1 NThAct=    5.
 IPart=  4 NShTot=        3936 NShNF=        3936 NShFF=           0 MinMC=       8
           NShCPU=        3936 NBCPU=         233 AvBCPU=        16.9
           NShGPU=           0 NBGPU=           0 AvBGPU=         0.0
 CoulSu-ThDecC:  IPartSL=    4    0 NPrtUSL=    5    1 IThBeg=    0 IThEnd=    4 CPU=   -1 GPU=   -1 NThAct=    4.
 IPart=  3 NShTot=        3989 NShNF=        3989 NShFF=           0 MinMC=       8
           NShCPU=        3989 NBCPU=         236 AvBCPU=        16.9
           NShGPU=           0 NBGPU=           0 AvBGPU=         0.0
 CoulSu-ThDecC:  IPartSL=    3    0 NPrtUSL=    5    1 IThBeg=    0 IThEnd=    4 CPU=   -1 GPU=   -1 NThAct=    3.
 IPart=  1 NShTot=        3767 NShNF=        3767 NShFF=           0 MinMC=       8
           NShCPU=        3767 NBCPU=         214 AvBCPU=        17.6
           NShGPU=           0 NBGPU=           0 AvBGPU=         0.0
 CoulSu-ThDecC:  IPartSL=    1    0 NPrtUSL=    5    1 IThBeg=    0 IThEnd=    4 CPU=   -1 GPU=   -1 NThAct=    2.
 IPart=  2 NShTot=        3771 NShNF=        3771 NShFF=           0 MinMC=       8
           NShCPU=        3771 NBCPU=         214 AvBCPU=        17.6
           NShGPU=           0 NBGPU=           0 AvBGPU=         0.0
 CoulSu-ThDecC:  IPartSL=    2    0 NPrtUSL=    5    1 IThBeg=    0 IThEnd=    4 CPU=   -1 GPU=   -1 NThAct=    1.
 CoulSu:  NxtVal=            426 LenVP=     1342088591 MinMC=       8.
 FoFCou EC=  1.34042924324     ENF=  1.34042924324    
 FoFCou: FMM=F IPFlag=           0 FMFlag=           0 FMFlg1=           0
         NFxFlg=           0 DoJE=F BraDBF=F KetDBF=F FulRan=T
         wScrn=  0.000000 ICntrl=       500 IOpCl=  1 I1Cent=           0 NGrid=           0
         NMat0=    1 NMatS0=      1 NMatT0=    0 NMatD0=    1 NMtDS0=    0 NMtDT0=    0
 Symmetry not used in FoFCou.
 FoFCou:  KetSym=F NOpSet=  0 NOpAb=0 NOp=  1.
 FoFCou:  CnvScl= 1.00D+00 Thresh= 1.00D-08 IAcrcy=      10.
 ShPair: Thresh= 1.00D-08 NBox=     0 BxSize= 0.00D+00 RnKept= 4.19D+00
         NSMCal=                  300 NSMKep=                 292
 PrismS was handed  6710514050 working-precision words and   292 shell-pairs
 FoFCou: LinMIO=F DoNuc=F BraDBF=F KetDBF=F HaveP=T PDBF=F HaveZ=F HaveW=F
         NIJTC =       6 NIJTAt=       0 NIJTCD=       0 NIJTT =       6
         IJTBeg=       1 IJTEnd=       6 KLTBeg=       1 KLTEnd=       6
         IPTBeg=       1 IPTEnd=       6 IPTBCv=       1 IPTECv=       6
         IZTBeg=       1 IZTEnd=       6 IZTBCv=       1 IZTECv=       6
         IWTBeg=       7 IWTEnd=       6 IWTBCv=       7 IWTECv=       6
         INTBeg=       1 INTEnd=       0 IFTBCv=       1 IFTECv=       6
 NCel replicated for PrismC:     1
 CoulSu-InSpLW:  IPartL=    0 NPrtUS=    5 NPrtUL=    1 DoSpLW=F IThBeg=    0 IThEnd=    4 NThAct=    5.
 CoulSu:  IncTry=  1024 NBBP=          42778 NTPThr=   100 NPartT=    5 Incr=          85 LDynOK=F GPUOK=F.
 CoulSu:  NPrtUS=   5 ThrOK=T IAlg=1 LenDen=        1830 LWGrdD=           0 DoCopy=T ISkipM=0
          DoSpLW=F IThBeg=    0 IThEnd=    4.
 CoulSu:  IPart=    0 IPartR=    0 CPU=   -1 GPU=   -1.
 CoulSu:  IPart=    4 IPartR=    4 CPU=   -1 GPU=   -1.
 Enter PrismC:  IPart=  0 JobTyp=20 DoJE=F Cont=F.
 CoulSu:  IPart=    1 IPartR=    1 CPU=   -1 GPU=   -1.
 PrismC:  IPart=     0 DynPar=F LinDyn=F Incr=          85 UseFst=F UseS4=T ISplat=2.
 CoulSu:  IPart=    2 IPartR=    2 CPU=   -1 GPU=   -1.
 Enter PrismC:  IPart=  4 JobTyp=20 DoJE=F Cont=F.
 PrismC was handed  1342088554 working-precision words and   292 shell-pairs
 PrismC:  IPart=     4 DynPar=F LinDyn=F Incr=          85 UseFst=F UseS4=T ISplat=2.
 Enter PrismC:  IPart=  1 JobTyp=20 DoJE=F Cont=F.
 PrismC was handed  1342088554 working-precision words and   292 shell-pairs
 PrismC:  IPart=     1 DynPar=F LinDyn=F Incr=          85 UseFst=F UseS4=T ISplat=2.
 Enter PrismC:  IPart=  2 JobTyp=20 DoJE=F Cont=F.
 CoulSu:  IPart=    3 IPartR=    3 CPU=   -1 GPU=   -1.
 PrismC:  IPart=     2 DynPar=F LinDyn=F Incr=          85 UseFst=F UseS4=T ISplat=2.
 PrismC was handed  1342088554 working-precision words and   292 shell-pairs
 PrismC was handed  1342088554 working-precision words and   292 shell-pairs
 Enter PrismC:  IPart=  3 JobTyp=20 DoJE=F Cont=F.
 PrismC:  IPart=     3 DynPar=F LinDyn=F Incr=          85 UseFst=F UseS4=T ISplat=2.
 PrismC was handed  1342088554 working-precision words and   292 shell-pairs
 IPart=  0 NShTot=        7258 NShNF=        7258 NShFF=           0 MinMC=       8
           NShCPU=        7258 NBCPU=         522 AvBCPU=        13.9
           NShGPU=           0 NBGPU=           0 AvBGPU=         0.0
 CoulSu-ThDecC:  IPartSL=    0    0 NPrtUSL=    5    1 IThBeg=    0 IThEnd=    4 CPU=   -1 GPU=   -1 NThAct=    5.
 IPart=  2 NShTot=        7038 NShNF=        7038 NShFF=           0 MinMC=       8
           NShCPU=        7038 NBCPU=         442 AvBCPU=        15.9
           NShGPU=           0 NBGPU=           0 AvBGPU=         0.0
 CoulSu-ThDecC:  IPartSL=    2    0 NPrtUSL=    5    1 IThBeg=    0 IThEnd=    4 CPU=   -1 GPU=   -1 NThAct=    4.
 IPart=  1 NShTot=        7152 NShNF=        7152 NShFF=           0 MinMC=       8
           NShCPU=        7152 NBCPU=         487 AvBCPU=        14.7
           NShGPU=           0 NBGPU=           0 AvBGPU=         0.0
 CoulSu-ThDecC:  IPartSL=    1    0 NPrtUSL=    5    1 IThBeg=    0 IThEnd=    4 CPU=   -1 GPU=   -1 NThAct=    3.
 IPart=  4 NShTot=        6754 NShNF=        6754 NShFF=           0 MinMC=       8
           NShCPU=        6754 NBCPU=         392 AvBCPU=        17.2
           NShGPU=           0 NBGPU=           0 AvBGPU=         0.0
 CoulSu-ThDecC:  IPartSL=    4    0 NPrtUSL=    5    1 IThBeg=    0 IThEnd=    4 CPU=   -1 GPU=   -1 NThAct=    2.
 IPart=  3 NShTot=        6902 NShNF=        6902 NShFF=           0 MinMC=       8
           NShCPU=        6902 NBCPU=         434 AvBCPU=        15.9
           NShGPU=           0 NBGPU=           0 AvBGPU=         0.0
 CoulSu-ThDecC:  IPartSL=    3    0 NPrtUSL=    5    1 IThBeg=    0 IThEnd=    4 CPU=   -1 GPU=   -1 NThAct=    1.
 CoulSu:  NxtVal=            426 LenVP=     1342088555 MinMC=       8.
 FoFCou EC=  33.9559954028     ENF=  33.9559954028    
 Enegy Component Breakdown at Iteration                       62
 Classical nuclear potential =     19.38378061978021     
 Quantum-classical nuclear potential =     4.594272913566011     
 Quantum nuclear potential =    1.3877787807814457E-016
 Pure electronic energy =   -111.3547976910933     
 Electron-quantum-nuclear potential =    -5.467787185219985     
 Quantum-nuclear-electron potential =    -5.467787185219984     
 DIIS: error= 7.06D-10 at cycle  62 NSaved=  10.
 B matrix at iteration         62
                 1             2             3             4             5 
      1   0.000000D+00 -0.100000D+01 -0.100000D+01 -0.100000D+01 -0.100000D+01
      2  -0.100000D+01  0.744590D-09  0.738752D-10  0.953148D-11 -0.597154D-12
      3  -0.100000D+01  0.738752D-10  0.541875D-10  0.109331D-10  0.595463D-12
      4  -0.100000D+01  0.953148D-11  0.109331D-10  0.900200D-11  0.773956D-12
      5  -0.100000D+01 -0.597154D-12  0.595463D-12  0.773956D-12  0.264124D-12
      6  -0.100000D+01  0.356414D-12  0.124259D-12  0.133368D-12  0.149740D-12
      7  -0.100000D+01  0.726621D-13  0.502437D-13  0.258333D-13  0.377027D-13
      8  -0.100000D+01 -0.171519D-12  0.178446D-14  0.106578D-13  0.177025D-13
      9  -0.100000D+01 -0.973463D-13  0.335210D-14  0.687962D-14  0.984051D-14
     10  -0.100000D+01  0.953708D-14  0.792117D-14  0.664458D-15  0.149254D-14
     11  -0.100000D+01 -0.339401D-13  0.949510D-15  0.143141D-14  0.107556D-14
                 6             7             8             9            10 
      1  -0.100000D+01 -0.100000D+01 -0.100000D+01 -0.100000D+01 -0.100000D+01
      2   0.356414D-12  0.726621D-13 -0.171519D-12 -0.973463D-13  0.953708D-14
      3   0.124259D-12  0.502437D-13  0.178446D-14  0.335210D-14  0.792117D-14
      4   0.133368D-12  0.258333D-13  0.106578D-13  0.687962D-14  0.664458D-15
      5   0.149740D-12  0.377027D-13  0.177025D-13  0.984051D-14  0.149254D-14
      6   0.133369D-12  0.379108D-13  0.154715D-13  0.834789D-14  0.223682D-14
      7   0.379108D-13  0.342179D-13  0.169258D-13  0.867715D-14  0.185350D-14
      8   0.154715D-13  0.169258D-13  0.141529D-13  0.900250D-14  0.196341D-14
      9   0.834789D-14  0.867715D-14  0.900250D-14  0.700512D-14  0.191230D-14
     10   0.223682D-14  0.185350D-14  0.196341D-14  0.191230D-14  0.166975D-14
     11   0.157372D-14  0.148466D-14  0.163368D-14  0.163977D-14  0.158271D-14
                11 
      1  -0.100000D+01
      2  -0.339401D-13
      3   0.949510D-15
      4   0.143141D-14
      5   0.107556D-14
      6   0.157372D-14
      7   0.148466D-14
      8   0.163368D-14
      9   0.163977D-14
     10   0.158271D-14
     11   0.153500D-14
 B matrix at iteration         62
                 1             2             3             4             5 
      1   0.000000D+00 -0.100000D+01 -0.100000D+01 -0.100000D+01 -0.100000D+01
      2  -0.100000D+01  0.744590D-09  0.738752D-10  0.953148D-11 -0.597154D-12
      3  -0.100000D+01  0.738752D-10  0.541875D-10  0.109331D-10  0.595463D-12
      4  -0.100000D+01  0.953148D-11  0.109331D-10  0.900200D-11  0.773956D-12
      5  -0.100000D+01 -0.597154D-12  0.595463D-12  0.773956D-12  0.264124D-12
      6  -0.100000D+01  0.356414D-12  0.124259D-12  0.133368D-12  0.149740D-12
      7  -0.100000D+01  0.726621D-13  0.502437D-13  0.258333D-13  0.377027D-13
      8  -0.100000D+01 -0.171519D-12  0.178446D-14  0.106578D-13  0.177025D-13
      9  -0.100000D+01 -0.973463D-13  0.335210D-14  0.687962D-14  0.984051D-14
     10  -0.100000D+01  0.953708D-14  0.792117D-14  0.664458D-15  0.149254D-14
     11  -0.100000D+01 -0.339401D-13  0.949510D-15  0.143141D-14  0.107556D-14
                 6             7             8             9            10 
      1  -0.100000D+01 -0.100000D+01 -0.100000D+01 -0.100000D+01 -0.100000D+01
      2   0.356414D-12  0.726621D-13 -0.171519D-12 -0.973463D-13  0.953708D-14
      3   0.124259D-12  0.502437D-13  0.178446D-14  0.335210D-14  0.792117D-14
      4   0.133368D-12  0.258333D-13  0.106578D-13  0.687962D-14  0.664458D-15
      5   0.149740D-12  0.377027D-13  0.177025D-13  0.984051D-14  0.149254D-14
      6   0.133369D-12  0.379108D-13  0.154715D-13  0.834789D-14  0.223682D-14
      7   0.379108D-13  0.342179D-13  0.169258D-13  0.867715D-14  0.185350D-14
      8   0.154715D-13  0.169258D-13  0.141529D-13  0.900250D-14  0.196341D-14
      9   0.834789D-14  0.867715D-14  0.900250D-14  0.700512D-14  0.191230D-14
     10   0.223682D-14  0.185350D-14  0.196341D-14  0.191230D-14  0.166975D-14
     11   0.157372D-14  0.148466D-14  0.163368D-14  0.163977D-14  0.158271D-14
                11 
      1  -0.100000D+01
      2  -0.339401D-13
      3   0.949510D-15
      4   0.143141D-14
      5   0.107556D-14
      6   0.157372D-14
      7   0.148466D-14
      8   0.163368D-14
      9   0.163977D-14
     10   0.158271D-14
     11   0.153500D-14
 NSaved=10 IEnMin= 1 EnMin=  0.00000000000000     IErMin=10 ErrMin= 7.06D-10
 ErrMax= 7.06D-10  0.00D+00 EMaxC= 1.00D+00 BMatC= 1.53D-15 BMatP= 1.67D-15
 IDIUse=1 WtCom= 1.00D+00 WtEn= 0.00D+00
 Inv2:  IOpt= 1 Iter= 1 AM= 1.20D+01 Conv= 1.00D-12.
 Inv2:  IOpt= 1 Iter= 2 AM= 5.02D-14 Conv= 1.00D-12.
 Coeff-Com:  0.155D-03 0.170D-03-0.117D-02 0.778D-02-0.472D-02 0.155D-01
 Coeff-Com: -0.393D-01 0.854D-01-0.177D+01 0.271D+01
 Coeff-En:   0.000D+00 0.000D+00 0.000D+00 0.000D+00 0.000D+00 0.000D+00
 Coeff-En:   0.000D+00 0.000D+00 0.000D+00 0.000D+00
 Coeff:      0.155D-03 0.170D-03-0.117D-02 0.778D-02-0.472D-02 0.155D-01
 Coeff:     -0.393D-01 0.854D-01-0.177D+01 0.271D+01
 Has Electronic Subsystem Converged:   T
 Has Protonic Subsystem Converged:   T
 Simultaneous Optimization Iteration #                       62
 The Energy for This Iteration is:    -92.84453134296703     
 TOTAL ENERGY HAS CONVERGED!!!
 NEO-SCF Converged After Iteration #                       62
 E= -92.8445313429670    
 Elec Eigen 
                 1             2 
      1  -0.155990D+02  0.000000D+00
      2  -0.112917D+02  0.000000D+00
      3  -0.123680D+01  0.000000D+00
      4  -0.791695D+00  0.000000D+00
      5  -0.574418D+00  0.000000D+00
      6  -0.491926D+00  0.000000D+00
      7  -0.491926D+00  0.000000D+00
      8   0.175887D+00  0.000000D+00
      9   0.192429D+00  0.000000D+00
     10   0.192429D+00  0.000000D+00
     11   0.348612D+00  0.000000D+00
     12   0.673058D+00  0.000000D+00
     13   0.673058D+00  0.000000D+00
     14   0.762014D+00  0.000000D+00
     15   0.877388D+00  0.000000D+00
     16   0.931409D+00  0.000000D+00
     17   0.105277D+01  0.000000D+00
     18   0.105277D+01  0.000000D+00
     19   0.131459D+01  0.000000D+00
     20   0.132854D+01  0.000000D+00
     21   0.132854D+01  0.000000D+00
     22   0.133247D+01  0.000000D+00
     23   0.133247D+01  0.000000D+00
     24   0.169133D+01  0.000000D+00
     25   0.200098D+01  0.000000D+00
     26   0.200098D+01  0.000000D+00
     27   0.219207D+01  0.000000D+00
     28   0.219207D+01  0.000000D+00
     29   0.239552D+01  0.000000D+00
     30   0.289788D+01  0.000000D+00
     31   0.289788D+01  0.000000D+00
     32   0.318661D+01  0.000000D+00
     33   0.348814D+01  0.000000D+00
 Prot Eigen 
                 1             2 
      1  -0.873514D+00  0.000000D+00
      2   0.665495D+00  0.000000D+00
      3   0.116426D+01  0.000000D+00
      4   0.116426D+01  0.000000D+00
      5   0.119298D+01  0.000000D+00
      6   0.139567D+01  0.000000D+00
      7   0.139567D+01  0.000000D+00
      8   0.141407D+01  0.000000D+00
      9   0.141407D+01  0.000000D+00
     10   0.141860D+01  0.000000D+00
     11   0.152882D+01  0.000000D+00
     12   0.209656D+01  0.000000D+00
     13   0.209656D+01  0.000000D+00
     14   0.212001D+01  0.000000D+00
     15   0.275185D+01  0.000000D+00
     16   0.275185D+01  0.000000D+00
     17   0.275780D+01  0.000000D+00
     18   0.275780D+01  0.000000D+00
     19   0.276034D+01  0.000000D+00
     20   0.311549D+01  0.000000D+00
     21   0.322557D+01  0.000000D+00
     22   0.322557D+01  0.000000D+00
     23   0.327066D+01  0.000000D+00
 Leave Link  502 at Wed Jun 15 18:17:29 2022, MaxMem=  6710886400 cpu:              38.2 elap:              13.2
 (Enter /home/software/gaussian/gdv/j19/gdv/l601.exe)
 Copying SCF densities to generalized density rwf, IOpCl=** IROHF=0.
 Alpha  occ. eigenvalues --  -15.59898 -11.29169  -1.23680  -0.79170  -0.57442
 Alpha  occ. eigenvalues --   -0.49193  -0.49193
 Alpha virt. eigenvalues --    0.17589   0.19243   0.19243   0.34861   0.67306
 Alpha virt. eigenvalues --    0.67306   0.76201   0.87739   0.93141   1.05277
 Alpha virt. eigenvalues --    1.05277   1.31459   1.32854   1.32854   1.33247
 Alpha virt. eigenvalues --    1.33247   1.69133   2.00098   2.00098   2.19207
 Alpha virt. eigenvalues --    2.19207   2.39552   2.89788   2.89788   3.18661
 Alpha virt. eigenvalues --    3.48814
 Nuclear orbitals not supported in not supported in RdDen.
 Error termination via Lnk1e in /home/software/gaussian/gdv/j19/gdv/l601.exe at Wed Jun 15 18:17:29 2022.
 Job cpu time:       0 days  0 hours  0 minutes 41.5 seconds.
 Elapsed time:       0 days  0 hours  0 minutes 14.7 seconds.
 File lengths (MBytes):  RWF=      6 Int=      0 D2E=      0 Chk=      1 Scr=      1
